 &FCI NORB=  26,NELEC=24,MS2=0,
  ORBSYM=1,1,1,1,1,1,1,1,1,1,1,1,1,1,1,1,1,1,1,1,1,1,1,1,1,1,
  ISYM=1,
 &END
 0.6769951586028898    1    1    1    1
 -3.907833828264734e-05    2    1    1    1
 0.02578657339791668    2    1    2    1
 0.5425808757665943    2    2    1    1
 -8.771028414972998e-05    2    2    2    1
 0.556164793107164    2    2    2    2
 -4.187462768844582e-07    3    1    1    1
 6.656032379738055e-08    3    1    2    1
 -8.39302157876003e-08    3    1    2    2
 0.03734141430032993    3    1    3    1
 4.678677763390996e-08    3    2    1    1
 -1.232374255230122e-07    3    2    2    1
 1.520982408251118e-07    3    2    2    2
 4.321693188650104e-05    3    2    3    1
 0.02970643289063806    3    2    3    2
 0.6098032077860225    3    3    1    1
 -1.404885711233886e-05    3    3    2    1
 0.5418554858893835    3    3    2    2
 -3.819517133203161e-07    3    3    3    1
 1.898570207858974e-07    3    3    3    2
 0.689431539307034    3    3    3    3
 -0.001442723965553641    4    1    1    1
 -5.200872164099158e-05    4    1    2    1
 -0.000366238666985735    4    1    2    2
 -3.728917274728111e-05    4    1    3    1
 -0.0004839849235543165    4    1    3    2
 -0.001433626043612121    4    1    3    3
 0.0006172223007440067    4    1    4    1
 -0.0005027002519710964    4    2    1    1
 -0.001050388931704904    4    2    2    1
 -0.0005609002090514097    4    2    2    2
 -0.0007030672226970693    4    2    3    1
 0.0008213714554185897    4    2    3    2
 0.0005397346642485681    4    2    3    3
 -4.325800839631005e-05    4    2    4    1
 0.003801751321783377    4    2    4    2
 -0.000937159707792737    4    3    1    1
 -0.000244345623985287    4    3    2    1
 -0.0007134502620128065    4    3    2    2
 -0.0001653978141833573    4    3    3    1
 0.0004906190751483554    4    3    3    2
 -0.0009565412791924118    4    3    3    3
 -0.0002783116354410693    4    3    4    1
 0.00019669999187019    4    3    4    2
 0.0002877452421081078    4    3    4    3
 0.2637213164135764    4    4    1    1
 -0.0003480937709132587    4    4    2    1
 0.3431348968078095    4    4    2    2
 -0.0004062513323014052    4    4    3    1
 0.008682526831776918    4    4    3    2
 0.2634799205976355    4    4    3    3
 0.01533467707532519    4    4    4    1
 0.0001972564487428229    4    4    4    2
 -0.005820965620089486    4    4    4    3
 1.065126433000349    4    4    4    4
 -0.0004576547070455324    5    1    1    1
 -3.066428270832489e-05    5    1    2    1
 -0.0001065765893641985    5    1    2    2
 3.121442432744938e-05    5    1    3    1
 -0.0003097389785549583    5    1    3    2
 -0.0006502456202465819    5    1    3    3
 0.0001733910831516586    5    1    4    1
 6.115601013731787e-05    5    1    4    2
 -3.419212090664503e-05    5    1    4    3
 0.004858862991990293    5    1    4    4
 0.000174938443294871    5    1    5    1
 -0.0001319885421704208    5    2    1    1
 -0.0003943974109883451    5    2    2    1
 -7.773207157632381e-05    5    2    2    2
 -0.0003804154922773167    5    2    3    1
 -0.001358694548993032    5    2    3    2
 -0.001606445643254943    5    2    3    3
 -1.304193084882702e-05    5    2    4    1
 -0.0005566919532594297    5    2    4    2
 4.624690403098189e-05    5    2    4    3
 -0.005318058071295772    5    2    4    4
 0.0001676080795581456    5    2    5    1
 0.004607963036853854    5    2    5    2
 0.00105160915148402    5    3    1    1
 -0.0002383135790234179    5    3    2    1
 0.0008268720556589571    5    3    2    2
 -0.0001862428443876959    5    3    3    1
 -0.0007208457895256616    5    3    3    2
 0.00122595082140643    5    3    3    3
 0.000373579949066414    5    3    4    1
 7.783843401905485e-05    5    3    4    2
 -0.0002629904265436623    5    3    4    3
 0.008549576130482161    5    3    4    4
 0.0001708147329235769    5    3    5    1
 0.0001571992324604319    5    3    5    2
 0.0005414508332907196    5    3    5    3
 -0.001029393132421788    5    4    1    1
 -2.8366097785036e-06    5    4    2    1
 -0.0008494269193866078    5    4    2    2
 0.000249173649704058    5    4    3    1
 0.0003370208789755234    5    4    3    2
 -0.001438256629005095    5    4    3    3
 0.0003807885358079576    5    4    4    1
 0.002399023977322294    5    4    4    2
 0.0004964506160658587    5    4    4    3
 0.001536689724871566    5    4    4    4
 0.0008506108592226891    5    4    5    1
 -0.0005626745899494493    5    4    5    2
 -0.0003536751991543385    5    4    5    3
 0.03816268746374428    5    4    5    4
 0.261688464193711    5    5    1    1
 0.0006814869307984978    5    5    2    1
 0.3387253783651695    5    5    2    2
 0.0006155741782563154    5    5    3    1
 0.008320317239893063    5    5    3    2
 0.2622870659839462    5    5    3    3
 0.01359988523412612    5    5    4    1
 0.001381619052345106    5    5    4    2
 -0.004918545710094274    5    5    4    3
 0.9816023678585423    5    5    4    4
 0.005369179603350816    5    5    5    1
 -0.0002849551208797987    5    5    5    2
 0.009583953343246118    5    5    5    3
 0.001553223286696628    5    5    5    4
 1.053646861884241    5    5    5    5
 5.788190609608009e-05    6    1    1    1
 -0.0005248521758660686    6    1    2    1
 2.787786476947957e-05    6    1    2    2
 -4.019941968338867e-05    6    1    3    1
 5.890756461679398e-05    6    1    3    2
 0.0001196008292069955    6    1    3    3
 -6.960789912313078e-06    6    1    4    1
 0.0001590234893581103    6    1    4    2
 4.195236026025725e-05    6    1    4    3
 -0.0004182649611930669    6    1    4    4
 -1.122384374128817e-05    6    1    5    1
 5.024755426459461e-05    6    1    5    2
 1.129527421592864e-05    6    1    5    3
 -4.547231637259152e-05    6    1    5    4
 0.0001105292328115156    6    1    5    5
 9.469186279327353e-05    6    1    6    1
 -0.00696813265406785    6    2    1    1
 2.319573728148436e-05    6    2    2    1
 -0.00743570000530275    6    2    2    2
 5.829887116453102e-05    6    2    3    1
 -0.0007974084150179844    6    2    3    2
 -0.006683540028892327    6    2    3    3
 0.0002748544038562006    6    2    4    1
 -4.74814440977062e-05    6    2    4    2
 -3.839750011948223e-05    6    2    4    3
 -0.002192802072099735    6    2    4    4
 6.23085781011344e-05    6    2    5    1
 0.0001611322839110972    6    2    5    2
 3.853498121733547e-06    6    2    5    3
 0.002266230080204808    6    2    5    4
 -0.003660745105629521    6    2    5    5
 -3.333423034547843e-05    6    2    6    1
 0.00424165376771228    6    2    6    2
 -0.002230299424362401    6    3    1    1
 5.430136869022054e-05    6    3    2    1
 -0.001394070151486089    6    3    2    2
 4.981259808117147e-05    6    3    3    1
 -0.0001645752166391257    6    3    3    2
 -0.001766452717668055    6    3    3    3
 0.0001847516769928518    6    3    4    1
 3.92103954607995e-05    6    3    4    2
 -7.78651913311163e-05    6    3    4    3
 0.006932784652058662    6    3    4    4
 3.509757197529491e-05    6    3    5    1
 -0.0001213016046099067    6    3    5    2
 0.0001346513707881178    6    3    5    3
 -0.000191081777490744    6    3    5    4
 0.007132156032912396    6    3    5    5
 2.150832078089054e-06    6    3    6    1
 1.49326341476613e-05    6    3    6    2
 0.0002728651234799871    6    3    6    3
 -0.0004379786772840784    6    4    1    1
 0.0009643215528406813    6    4    2    1
 -0.000678919710948967    6    4    2    2
 0.0002912224897789225    6    4    3    1
 0.0001031505766567118    6    4    3    2
 -0.0003124281938879761    6    4    3    3
 8.482778204462712e-05    6    4    4    1
 0.0005057195107259777    6    4    4    2
 0.0004036155376209981    6    4    4    3
 0.001876929635086713    6    4    4    4
 1.034347435193544e-05    6    4    5    1
 -0.001265416432428966    6    4    5    2
 0.00025021692934491    6    4    5    3
 6.160781090045663e-05    6    4    5    4
 0.01690571579189722    6    4    5    5
 0.0008984262726315872    6    4    6    1
 2.12810148308474e-05    6    4    6    2
 -0.0002860522988939697    6    4    6    3
 0.03827345474968645    6    4    6    4
 0.0006302429126601404    6    5    1    1
 0.00022502255835872    6    5    2    1
 0.0008552301400444724    6    5    2    2
 -5.00802246556097e-05    6    5    3    1
 -0.0004419800031896308    6    5    3    2
 0.0004264961816319748    6    5    3    3
 5.983418241061083e-07    6    5    4    1
 -0.002376592849305165    6    5    4    2
 -3.741899282181035e-05    6    5    4    3
 -9.709486151091675e-05    6    5    4    4
 -0.0003284967726063596    6    5    5    1
 0.001355449518577719    6    5    5    2
 0.0003227961376669292    6    5    5    3
 -0.01046291985793562    6    5    5    4
 -0.00256020044081275    6    5    5    5
 0.0003043904090742746    6    5    6    1
 -0.0001869738974563113    6    5    6    2
 0.0004889979615057222    6    5    6    3
 0.001707180728752667    6    5    6    4
 0.03330104446790528    6    5    6    5
 0.257972149746976    6    6    1    1
 -0.0003272778393257656    6    6    2    1
 0.333052822507246    6    6    2    2
 0.0001332815290021109    6    6    3    1
 0.007629592941201802    6    6    3    2
 0.2584755104991831    6    6    3    3
 0.01330616101599108    6    6    4    1
 -0.0001664558394997824    6    6    4    2
 -0.005335544094929359    6    6    4    3
 0.9738787752373678    6    6    4    4
 0.004773507179988246    6    6    5    1
 0.001140516789843681    6    6    5    2
 0.008958117851602646    6    6    5    3
 -0.008093493239653934    6    6    5    4
 0.9994694271714178    6    6    5    5
 -0.0003199337155551248    6    6    6    1
 -0.001755639141106923    6    6    6    2
 0.008062385387634268    6    6    6    3
 0.002106864062624229    6    6    6    4
 -0.0001976012794373558    6    6    6    5
 1.074850836825314    6    6    6    6
 -0.0008932765815836906    7    1    1    1
 6.167865195913804e-05    7    1    2    1
 -0.0001915003857523321    7    1    2    2
 2.950548105309896e-05    7    1    3    1
 -5.963272788105862e-05    7    1    3    2
 -0.0005305509975576582    7    1    3    3
 0.0003384915454730146    7    1    4    1
 6.766974153030491e-05    7    1    4    2
 -0.0001222734970709731    7    1    4    3
 0.009021933031599807    7    1    4    4
 0.0001297745328983773    7    1    5    1
 1.546355296932926e-05    7    1    5    2
 0.0002541376167253964    7    1    5    3
 7.915724288995794e-05    7    1    5    4
 0.008933525638781555    7    1    5    5
 -9.838368579679128e-06    7    1    6    1
 0.0001400240360034208    7    1    6    2
 0.0001730991298595382    7    1    6    3
 -0.0001827780438476723    7    1    6    4
 7.367107308425084e-05    7    1    6    5
 0.009020295829524738    7    1    6    6
 0.0003283648600581588    7    1    7    1
 0.00071732076311327    7    2    1    1
 -0.000688349880542554    7    2    2    1
 0.0007746990968976172    7    2    2    2
 -0.000230794092886657    7    2    3    1
 -0.0005946765019970155    7    2    3    2
 -9.913849745060347e-05    7    2    3    3
 7.919377125055943e-05    7    2    4    1
 -0.0004854605790156427    7    2    4    2
 -0.0001088150509931693    7    2    4    3
 0.002341604448366369    7    2    4    4
 -0.0001065715192610898    7    2    5    1
 0.0003080819067430033    7    2    5    2
 0.000120144364789625    7    2    5    3
 -0.003360156879093021    7    2    5    4
 -0.002179155176797238    7    2    5    5
 5.613002752446016e-05    7    2    6    1
 3.518390944853836e-05    7    2    6    2
 -7.87856224599238e-05    7    2    6    3
 -0.0001840618848274606    7    2    6    4
 0.003084218637619612    7    2    6    5
 -0.0001491505402242391    7    2    6    6
 -0.000135806079901296    7    2    7    1
 0.003898350080651606    7    2    7    2
 0.0008292862868090064    7    3    1    1
 0.0001120124541558528    7    3    2    1
 0.0005984756538791137    7    3    2    2
 0.0001519462250598597    7    3    3    1
 -0.0003728216906201007    7    3    3    2
 0.000826105769723747    7    3    3    3
 0.0001509244982868136    7    3    4    1
 -0.0001452755076319563    7    3    4    2
 -0.0001448909828524994    7    3    4    3
 0.003228092881947927    7    3    4    4
 0.0001006344448041163    7    3    5    1
 0.0001112536913315364    7    3    5    2
 0.0001930201027542302    7    3    5    3
 9.156126522620375e-05    7    3    5    4
 0.003433008628754839    7    3    5    5
 -3.163729457476849e-06    7    3    6    1
 -1.26871161314942e-05    7    3    6    2
 4.774967503443826e-05    7    3    6    3
 -0.0001382809269410167    7    3    6    4
 -0.0001558325214973867    7    3    6    5
 0.003628976417066076    7    3    6    6
 0.0001192998439001195    7    3    7    1
 -0.0001685018990900446    7    3    7    2
 0.0001971110811187252    7    3    7    3
 0.001884245780823533    7    4    1    1
 0.0004102709307749224    7    4    2    1
 0.003579870519811334    7    4    2    2
 0.0001699753676352924    7    4    3    1
 -0.0004106589349728903    7    4    3    2
 0.0008573137786792493    7    4    3    3
 0.0006049380486081606    7    4    4    1
 -0.001163805407962747    7    4    4    2
 0.0003141269573610597    7    4    4    3
 0.002363874084005081    7    4    4    4
 -1.113807566120794e-05    7    4    5    1
 0.00276145834709335    7    4    5    2
 3.97329953345535e-05    7    4    5    3
 0.0009875414767939129    7    4    5    4
 0.001404076565873787    7    4    5    5
 0.0002262163413310624    7    4    6    1
 0.000206691813823251    7    4    6    2
 -2.633659965560026e-05    7    4    6    3
 0.002540084541095299    7    4    6    4
 0.006919270341984769    7    4    6    5
 -0.01520266763604234    7    4    6    6
 0.0008893253278167332    7    4    7    1
 0.0004505582845554887    7    4    7    2
 -0.000285518739694093    7    4    7    3
 0.04180343017321186    7    4    7    4
 0.003180659131711843    7    5    1    1
 -0.0003804554762304141    7    5    2    1
 0.004539209943456775    7    5    2    2
 0.0001792730374667882    7    5    3    1
 0.0004427641834714812    7    5    3    2
 0.003445868650108753    7    5    3    3
 -0.0001033979205055588    7    5    4    1
 0.0009423288127184613    7    5    4    2
 -2.677116682711048e-05    7    5    4    3
 -0.0002932720504259127    7    5    4    4
 0.0005725887078680288    7    5    5    1
 0.0009726877679124505    7    5    5    2
 0.0001127938255997235    7    5    5    3
 0.0009602023400653832    7    5    5    4
 0.00146294638700578    7    5    5    5
 -0.0001549621959875788    7    5    6    1
 -0.004361265912913226    7    5    6    2
 -3.331782798596976e-05    7    5    6    3
 -0.007597422492086741    7    5    6    4
 -0.005501373362993021    7    5    6    5
 -0.003149029698366449    7    5    6    6
 0.0002595584582132837    7    5    7    1
 -0.00206436606118212    7    5    7    2
 0.0006005100421470189    7    5    7    3
 -4.994095362852336e-06    7    5    7    4
 0.04184314209778178    7    5    7    5
 7.523816411739586e-05    7    6    1    1
 0.0004002231722120258    7    6    2    1
 7.969994327973631e-05    7    6    2    2
 0.0003077323229592951    7    6    3    1
 -0.0002688951827540572    7    6    3    2
 -0.0001479754245210439    7    6    3    3
 -0.0001304411194479323    7    6    4    1
 0.0002148215931594565    7    6    4    2
 0.0002619231629701442    7    6    4    3
 -0.01323613222589168    7    6    4    4
 0.0001074208630132292    7    6    5    1
 0.003226811957817588    7    6    5    2
 3.804018082728709e-05    7    6    5    3
 0.003213677215575451    7    6    5    4
 0.006175000479264183    7    6    5    5
 0.0005596669249863144    7    6    6    1
 5.159307167717103e-05    7    6    6    2
 0.0001707434454315965    7    6    6    3
 0.003570072756726698    7    6    6    4
 0.0004953924464087999    7    6    6    5
 -0.001394841566565226    7    6    6    6
 0.0001790357256940438    7    6    7    1
 -0.00178068286437262    7    6    7    2
 0.0003092666406668367    7    6    7    3
 0.00884948585541465    7    6    7    4
 0.001892999904046698    7    6    7    5
 0.0330186143065053    7    6    7    6
 0.2600852075892205    7    7    1    1
 -0.001000322977840831    7    7    2    1
 0.3370928001417366    7    7    2    2
 2.948202480115562e-05    7    7    3    1
 0.007218202798440033    7    7    3    2
 0.2594040929911688    7    7    3    3
 0.01364677695179587    7    7    4    1
 -0.0009420911510727064    7    7    4    2
 -0.005265403321189497    7    7    4    3
 0.9790637801164155    7    7    4    4
 0.00477146921520176    7    7    5    1
 0.003519886483558003    7    7    5    2
 0.008425684523680787    7    7    5    3
 0.001424703549070248    7    7    5    4
 0.9718815238085554    7    7    5    5
 -0.0005840889323287965    7    7    6    1
 0.0009053899861575487    7    7    6    2
 0.007387518477731574    7    7    6    3
 -0.01373114671463978    7    7    6    4
 0.001218213402226069    7    7    6    5
 0.9975160872384031    7    7    6    6
 0.01022156772268233    7    7    7    1
 0.0001988741511560575    7    7    7    2
 0.003868120853118259    7    7    7    3
 0.003103026357870904    7    7    7    4
 0.0005585956449837185    7    7    7    5
 0.0008516995580417488    7    7    7    6
 1.056284805755568    7    7    7    7
 0.001444539770574394    8    1    1    1
 5.208355006282689e-05    8    1    2    1
 0.0003666277399570076    8    1    2    2
 -3.718291853560328e-05    8    1    3    1
 -0.0004850079130746125    8    1    3    2
 0.001435934654696927    8    1    3    3
 4.065729119063848e-05    8    1    4    1
 -2.31603737608849e-05    8    1    4    2
 -2.219066151805756e-05    8    1    4    3
 -0.0001656705462069435    8    1    4    4
 1.286630451499149e-05    8    1    5    1
 -6.124888472383725e-06    8    1    5    2
 3.925398983701311e-05    8    1    5    3
 -5.747295722530602e-06    8    1    5    4
 -0.000155074652597835    8    1    5    5
 6.621369743924445e-06    8    1    6    1
 -7.369190326456072e-05    8    1    6    2
 2.067744171987343e-06    8    1    6    3
 1.241045911502666e-05    8    1    6    4
 3.257507174449268e-07    8    1    6    5
 -0.0001547795251915518    8    1    6    6
 2.693208825814112e-05    8    1    7    1
 -7.216611491577272e-06    8    1    7    2
 2.826290529148091e-05    8    1    7    3
 -1.012924712998636e-05    8    1    7    4
 -2.121473326124319e-05    8    1    7    5
 -7.495860030827038e-07    8    1    7    6
 -0.0001712624000994768    8    1    7    7
 0.0006186414343212611    8    1    8    1
 0.0005023238255579903    8    2    1    1
 0.001051940956447013    8    2    2    1
 0.0005601640369685297    8    2    2    2
 -0.0007043683692089405    8    2    3    1
 0.0008167586993839534    8    2    3    2
 -0.0005350293903135258    8    2    3    3
 -2.328610524561309e-05    8    2    4    1
 2.606804522640609e-05    8    2    4    2
 1.122293207019211e-06    8    2    4    3
 0.0005769349475766941    8    2    4    4
 3.478113677483544e-05    8    2    5    1
 0.0001561621711375233    8    2    5    2
 1.424762340353361e-05    8    2    5    3
 -2.473690380375352e-05    8    2    5    4
 0.000526870706795561    8    2    5    5
 -2.914294844227683e-05    8    2    6    1
 -1.775393454450528e-05    8    2    6    2
 -5.4836753676691e-05    8    2    6    3
 -5.552402903655768e-05    8    2    6    4
 1.768822839017026e-05    8    2    6    5
 0.0005825804288123822    8    2    6    6
 -1.36611158298233e-05    8    2    7    1
 0.000130924601204677    8    2    7    2
 -2.162657944900002e-05    8    2    7    3
 1.343209340138709e-05    8    2    7    4
 2.649687857526418e-05    8    2    7    5
 -4.046284425174014e-06    8    2    7    6
 0.0006476404002223167    8    2    7    7
 -4.305909767179896e-05    8    2    8    1
 0.003797717527666955    8    2    8    2
 -0.0009331249408937614    8    3    1    1
 -0.0002450487928540973    8    3    2    1
 -0.0007103661799476084    8    3    2    2
 0.000165928589574114    8    3    3    1
 -0.0004881167456023562    8    3    3    2
 -0.0009519931360750051    8    3    3    3
 2.199345439584115e-05    8    3    4    1
 -1.136823401618267e-06    8    3    4    2
 -1.594431780385887e-05    8    3    4    3
 -0.0008315875917514155    8    3    4    4
 1.448978910123385e-05    8    3    5    1
 -7.813190767176984e-06    8    3    5    2
 4.029282795900755e-05    8    3    5    3
 1.586456445779552e-05    8    3    5    4
 -0.0008396204085816657    8    3    5    5
 4.768787362322977e-06    8    3    6    1
 2.71483566682327e-06    8    3    6    2
 2.010628657964528e-05    8    3    6    3
 3.984663769106893e-06    8    3    6    4
 -9.546704903946045e-06    8    3    6    5
 -0.0008193666477294601    8    3    6    6
 2.456192156985172e-05    8    3    7    1
 -1.046684197328002e-05    8    3    7    2
 2.479596709404708e-05    8    3    7    3
 -9.267353334367257e-06    8    3    7    4
 -2.889086393045165e-05    8    3    7    5
 -4.469068583388947e-06    8    3    7    6
 -0.0008252546217636377    8    3    7    7
 0.0002772186960532361    8    3    8    1
 -0.0001969817745514724    8    3    8    2
 0.0002859261906310979    8    3    8    3
 0.0001026254925981472    8    4    1    1
 -8.24813259560538e-06    8    4    2    1
 1.952808806478638e-05    8    4    2    2
 -8.260078700842625e-08    8    4    3    1
 -1.132041385126838e-08    8    4    3    2
 6.187226384093407e-05    8    4    3    3
 -8.053003759761703e-06    8    4    4    1
 2.655824952657457e-06    8    4    4    2
 -6.21388160954122e-07    8    4    4    3
 -0.0002179026543112406    8    4    4    4
 -4.450900692961796e-06    8    4    5    1
 -4.63363630263358e-06    8    4    5    2
 -1.501018540826464e-06    8    4    5    3
 -4.588975285121191e-05    8    4    5    4
 -0.0001921136657991696    8    4    5    5
 4.892501660028727e-07    8    4    6    1
 -9.869876192087824e-06    8    4    6    2
 -1.766987787799204e-06    8    4    6    3
 -3.727630797515307e-06    8    4    6    4
 3.397768260008433e-06    8    4    6    5
 -0.0001659282062694384    8    4    6    6
 -5.266522023006558e-06    8    4    7    1
 3.443271126501833e-06    8    4    7    2
 -4.045896472413911e-07    8    4    7    3
 -4.377136661941029e-05    8    4    7    4
 1.418272499679884e-06    8    4    7    5
 -7.865637625302279e-06    8    4    7    6
 -0.0001947654622021436    8    4    7    7
 8.055585521207584e-06    8    4    8    1
 -2.693236701660156e-06    8    4    8    2
 -6.491312489926057e-07    8    4    8    3
 6.455652270983871e-07    8    4    8    4
 0.0002424219938325138    8    5    1    1
 1.350644029307076e-05    8    5    2    1
 9.273461673934892e-05    8    5    2    2
 2.38408647854375e-05    8    5    3    1
 4.558746847975837e-06    8    5    3    2
 0.0002617495304726579    8    5    3    3
 -2.396592777791561e-05    8    5    4    1
 -8.243593112769627e-06    8    5    4    2
 1.02689194354175e-05    8    5    4    3
 -0.0007565371970416516    8    5    4    4
 -1.162566125783715e-05    8    5    5    1
 -1.502958614858361e-06    8    5    5    2
 -2.402609692548201e-05    8    5    5    3
 -1.549559424312293e-05    8    5    5    4
 -0.0008386004445641661    8    5    5    5
 -3.413146698383302e-07    8    5    6    1
 -4.756263781373411e-06    8    5    6    2
 -1.134339402774661e-05    8    5    6    3
 -1.376924274161692e-05    8    5    6    4
 1.152124772872243e-05    8    5    6    5
 -0.0007717500727009876    8    5    6    6
 -1.652319413991047e-05    8    5    7    1
 5.722681737193948e-06    8    5    7    2
 -8.98220802728419e-06    8    5    7    3
 1.602083131382353e-06    8    5    7    4
 -3.77638730682891e-05    8    5    7    5
 -5.595594537881834e-06    8    5    7    6
 -0.0007403580906453027    8    5    7    7
 2.781672822067591e-05    8    5    8    1
 2.935861603400355e-05    8    5    8    2
 1.654502009212004e-05    8    5    8    3
 3.963618142083183e-07    8    5    8    4
 3.82379265288277e-06    8    5    8    5
 3.374271196158055e-05    8    6    1    1
 7.141773308428611e-06    8    6    2    1
 9.804443510323742e-06    8    6    2    2
 2.420092931225102e-06    8    6    3    1
 3.618615370696946e-06    8    6    3    2
 1.835987574309836e-05    8    6    3    3
 3.133694086960917e-07    8    6    4    1
 -6.095645122702023e-06    8    6    4    2
 -8.177285187596334e-07    8    6    4    3
 1.208834145418082e-05    8    6    4    4
 1.235001842220462e-06    8    6    5    1
 3.493775281815281e-06    8    6    5    2
 -1.549155761571655e-06    8    6    5    3
 1.148535299105344e-05    8    6    5    4
 -1.203567132036267e-05    8    6    5    5
 -2.968808862583383e-06    8    6    6    1
 6.280416271778384e-06    8    6    6    2
 -7.352169163475171e-06    8    6    6    3
 -1.782770351112286e-05    8    6    6    4
 -4.203991384544085e-05    8    6    6    5
 -5.431835624565985e-06    8    6    6    6
 -2.435897277341498e-06    8    6    7    1
 1.173329648021765e-06    8    6    7    2
 -1.357677425158079e-07    8    6    7    3
 -1.544873900088142e-05    8    6    7    4
 3.56259254887289e-06    8    6    7    5
 -3.572095467040734e-05    8    6    7    6
 3.310615654377531e-06    8    6    7    7
 -1.804396299498855e-07    8    6    8    1
 0.000171138849318294    8    6    8    2
 -2.54706715068015e-06    8    6    8    3
 -6.658880930012174e-08    8    6    8    4
 1.780225993998298e-06    8    6    8    5
 1.098885758960671e-05    8    6    8    6
 0.0002179832839205364    8    7    1    1
 -9.966223218771811e-06    8    7    2    1
 7.721401262259597e-05    8    7    2    2
 1.286384261915551e-05    8    7    3    1
 -8.624447568495832e-06    8    7    3    2
 0.000211396194554385    8    7    3    3
 -1.974178537442574e-05    8    7    4    1
 4.61471489134689e-06    8    7    4    2
 9.264150723584085e-06    8    7    4    3
 -0.0006300661236410906    8    7    4    4
 -8.623475251826842e-06    8    7    5    1
 -2.50896718440151e-06    8    7    5    2
 -1.413034669372633e-05    8    7    5    3
 -8.008270425619235e-06    8    7    5    4
 -0.0006303459331502725    8    7    5    5
 1.16421949817842e-06    8    7    6    1
 -7.819268228860773e-06    8    7    6    2
 -1.093140414840384e-05    8    7    6    3
 2.104895924094989e-05    8    7    6    4
 7.681949806770965e-06    8    7    6    5
 -0.0006496408133194475    8    7    6    6
 -1.759040063732589e-05    8    7    7    1
 1.736595845524171e-05    8    7    7    2
 -1.155600570414297e-05    8    7    7    3
 -1.421989295313178e-05    8    7    7    4
 -4.979297710567563e-05    8    7    7    5
 -7.851241849816834e-06    8    7    7    6
 -0.0007175086774797683    8    7    7    7
 2.364206165802014e-05    8    7    8    1
 -6.863094144512925e-06    8    7    8    2
 1.248702183509647e-05    8    7    8    3
 4.828336555618581e-07    8    7    8    4
 2.516544709828902e-06    8    7    8    5
 -4.362395048448914e-07    8    7    8    6
 2.568304003460385e-06    8    7    8    7
 0.2637164098380689    8    8    1    1
 -0.0003469980438587629    8    8    2    1
 0.3431316982625621    8    8    2    2
 0.0004045219961347007    8    8    3    1
 -0.008684260598936617    8    8    3    2
 0.2634713425790172    8    8    3    3
 0.0001653309065648422    8    8    4    1
 -0.0005810838043981873    8    8    4    2
 -0.0008356177872952987    8    8    4    3
 0.13921354107401    8    8    4    4
 0.0001017437926870008    8    8    5    1
 0.001405422173280826    8    8    5    2
 0.001145190798113416    8    8    5    3
 -0.0003113760840953809    8    8    5    4
 0.1390064367777829    8    8    5    5
 -2.624202655225871e-05    8    8    6    1
 0.003227016092655717    8    8    6    2
 -0.0007510041240359905    8    8    6    3
 -9.417174107339115e-05    8    8    6    4
 0.0002101154162396282    8    8    6    5
 0.1385240808664596    8    8    6    6
 9.408505498219236e-05    8    8    7    1
 0.0002369285887964081    8    8    7    2
 0.0006919420167949982    8    8    7    3
 0.0002858401460711778    8    8    7    4
 0.0006109783568754549    8    8    7    5
 1.875823944665968e-05    8    8    7    6
 0.1386495912396203    8    8    7    7
 -0.01535731577667461    8    8    8    1
 -0.0001957501322566767    8    8    8    2
 -0.005789198909173599    8    8    8    3
 -0.0002177684551074147    8    8    8    4
 -0.0008877213097022339    8    8    8    5
 -9.333489755288751e-05    8    8    8    6
 -0.0007339156121291753    8    8    8    7
 1.065149817828538    8    8    8    8
 -0.0004579417937872932    9    1    1    1
 -3.090665488031247e-05    9    1    2    1
 -0.0001064420515088902    9    1    2    2
 -3.14641104474008e-05    9    1    3    1
 0.0003084292873007361    9    1    3    2
 -0.0006484182641849461    9    1    3    3
 -1.287959477765817e-05    9    1    4    1
 -3.477142894258305e-05    9    1    4    2
 1.460380013914323e-05    9    1    4    3
 0.0001017385795024812    9    1    4    4
 -1.604943307366531e-06    9    1    5    1
 1.372124647348305e-05    9    1    5    2
 -1.406247996487266e-05    9    1    5    3
 -1.105496066835036e-05    9    1    5    4
 9.107791408216666e-05    9    1    5    5
 8.544389380453101e-06    9    1    6    1
 2.483698791039315e-05    9    1    6    2
 -9.791691188360061e-06    9    1    6    3
 1.173861443606181e-05    9    1    6    4
 1.211105661614951e-05    9    1    6    5
 8.146859872206894e-05    9    1    6    6
 -1.586652609175622e-05    9    1    7    1
 -1.594076873244269e-05    9    1    7    2
 6.509264449134394e-06    9    1    7    3
 1.365649044133023e-05    9    1    7    4
 -1.148066244573161e-05    9    1    7    5
 2.664420401204262e-06    9    1    7    6
 7.382657059311652e-05    9    1    7    7
 -0.0001738902767536277    9    1    8    1