[Molden Format]
made by pyscf v[2.1.0]
[Atoms] (AU)
O   1   8     0.00000000000000     0.00000000000000     0.17394928976621
Cu   2   29     0.01202614335741     3.59982559658637     0.00000000000000
Cu   3   29    -0.01202614335741    -3.59982559658637     0.00000000000000
La   4   11     3.54925967188701    -0.03853978134195    -3.42928599824822
La   5   11    -3.54925967188701     0.03853978134195    -3.42928599824822
La   6   11     3.65039151939601     0.06259206805678     3.42928599824822
La   7   11    -3.65039151939601    -0.06259206805678     3.42928599824822
O   8   8     3.58779945133923    -3.58779945133923     0.17394928976621
O   9   8    -3.58779945133923     3.58779945133923     0.17394928976621
O   10   8     3.61185173994378     3.61185173994378    -0.17394928976621
O   11   8    -3.61185173994378    -3.61185173994378    -0.17394928976621
O   12   8     0.21190866440572    -3.37589078693351    -4.64693102661171
O   13   8    -0.21190866440572     3.37589078693351    -4.64693102661171
O   14   8    -0.23596095112054    -3.82376040434950     4.64693102661171
O   15   8     0.23596095112054     3.82376040434950     4.64693102661171
O   16   8     7.19965119128301     0.02405228671483    -0.17394928976621
O   17   8     0.02405228671483     7.19965119128301    -0.17394928976621
O   18   8    -7.19965119128301    -0.02405228671483    -0.17394928976621
O   19   8    -0.02405228671483    -7.19965119128301    -0.17394928976621
Cu   20   11    -7.18762504792560     3.57577330798182     0.00000000000000
Cu   21   11     7.18762504792560    -3.57577330798182     0.00000000000000
Cu   22   11    -7.21167733464043    -3.62387788330120     0.00000000000000
Cu   23   11     7.21167733464043     3.62387788330120     0.00000000000000
La   24   3     3.57331195860183     7.16111140994106     3.42928599824822
La   25   3    -3.57331195860183    -7.16111140994106     3.42928599824822
La   26   3    -3.62633923268118     7.13705912322624    -3.42928599824822
La   27   3     3.62633923268118    -7.13705912322624    -3.42928599824822
La   28   3     3.52520738517218    -7.23819097262496     3.42928599824822
La   29   3    -3.52520738517218     7.23819097262496     3.42928599824822
La   30   3    -3.67444380611083    -7.26224325933979    -3.42928599824822
La   31   3     3.67444380611083     7.26224325933979    -3.42928599824822
La   32   3     0.03853978134195    -3.54925967188701     8.99566327076706
La   33   3    -0.03853978134195     3.54925967188701     8.99566327076706
La   34   3     0.06259206805678     3.65039151939601    -8.99566327076706
La   35   3    -0.06259206805678    -3.65039151939601    -8.99566327076706
O   36   8     7.17559890456819    -7.17559890456819     0.17394928976621
O   37   8    -7.17559890456819     7.17559890456819     0.17394928976621
O   38   8     7.22370347799784     7.22370347799784     0.17394928976621
O   39   8    -7.22370347799784    -7.22370347799784     0.17394928976621
Cu   40   11     0.03607843007224    10.79947678786938     0.00000000000000
Cu   41   11    -0.03607843007224   -10.79947678786938     0.00000000000000
O   42   8     3.56374716462440   -10.78745064451197    -0.17394928976621
O   43   8    -3.56374716462440    10.78745064451197    -0.17394928976621
O   44   8    10.78745064451197    -3.56374716462440    -0.17394928976621
O   45   8   -10.78745064451197     3.56374716462440    -0.17394928976621
O   46   8   -10.81150293122679    -3.63590402665861     0.17394928976621
O   47   8    -3.63590402665861   -10.81150293122679     0.17394928976621
O   48   8     3.63590402665861    10.81150293122679     0.17394928976621
O   49   8    10.81150293122679     3.63590402665861     0.17394928976621
O   50   8     0.04810457342965    14.39930238256602     0.17394928976621
O   51   8    -0.04810457342965   -14.39930238256602     0.17394928976621
[GTO]
1 0
 s    8 1.00
                 11720  0.00070964594651845
                  1759  0.0054672722921914
                 400.8   0.027823118610189
                 113.7    0.10474773971146
                 37.03    0.28292084635691
                 13.27    0.44849523869833
                 5.025    0.27081688521277
                 1.013    0.01545029160744
 s    8 1.00
                 11720  -0.00031444341168873
                  1759  -0.0024821376810179
                 400.8  -0.012316355381583
                 113.7  -0.050538917343672
                 37.03   -0.13938490331632
                 13.27   -0.32507749481778
                 5.025   -0.22984830758785
                 1.013     1.0953793467883
 s    1 1.00
                0.3023                   1
 p    3 1.00
                  17.7   0.062679166281506
                 3.854    0.33353656587936
                 1.046    0.74123964163973
 p    1 1.00
                0.2753                   1
 d    1 1.00
                 1.185                   1

2 0
 s   19 1.00
               5430321  7.8010246425392e-06
              813166.5  6.0656649445101e-05
              185054.4  0.00031889634450866
              52414.66  0.0013446867660103
              17098.68  0.0048690491527339
              6171.994   0.015610127283673
              2406.481   0.044520762252916
              997.2584     0.1103110808047
              433.9289    0.22203416136371
              196.2869    0.31337384546964
               91.0428    0.23151205971445
              41.38425   0.076409186703993
              19.93278     0.1103817807924
              9.581891    0.10943718095677
              4.234516   0.018363106804625
              1.985814  -0.00060430829484396
              0.867083  5.0922441138956e-05
              0.181339  -5.5407290358545e-05
              0.083657  3.9694813092683e-05
 s   19 1.00
               5430321  -4.4046866008088e-06
              813166.5  -3.4247859165031e-05
              185054.4  -0.00018012300669937
              52414.66  -0.00076004215261019
              17098.68  -0.0027593358472889
              6171.994  -0.0089009307983782
              2406.481  -0.025793666399122
              997.2584  -0.066238318272139
              433.9289   -0.14459206318532
              196.2869   -0.24400992532758
               91.0428   -0.25048259682054
              41.38425   0.028525644366901
              19.93278    0.51158514686851
              9.581891    0.49280392958505
              4.234516   0.087883982939956
              1.985814  -0.0058202553663382
              0.867083  0.00020134991321149
              0.181339  -0.00051825301750177
              0.083657  0.00037314865657272
 s   19 1.00
               5430321  9.7106379787194e-07
              813166.5  7.5538781391969e-06
              185054.4  3.971327797102e-05
              52414.66  0.00016782293348621
              17098.68  0.00060988416987523
              6171.994  0.0019800604617067
              2406.481  0.0058016073913474
              997.2584   0.015350995468122
              433.9289   0.035426568736048
              196.2869   0.067062112262823
               91.0428   0.080318713142885
              41.38425  -0.019284137844357
              19.93278      -0.31620684413
              9.581891   -0.45759686510116
              4.234516    0.15517927855395
              1.985814    0.72072925623997
              0.867083    0.38875063855939
              0.181339   0.019255070015728
              0.083657  -0.0071081667640107
 s   19 1.00
               5430321  -2.7214936692749e-07
              813166.5  -2.1160644800876e-06
              185054.4  -1.1132367725513e-05
              52414.66  -4.7002801968797e-05
              17098.68  -0.00017100934860001
              6171.994  -0.00055449061551447
              2406.481  -0.0016277397708751
              997.2584  -0.0043004623619226
              433.9289  -0.0099617187836318
              196.2869  -0.018843126168653
               91.0428  -0.022834595769104
              41.38425  0.0057053924904517
              19.93278   0.092977484662569
              9.581891    0.14281732357275
              4.234516  -0.061433599120175
              1.985814   -0.28212734644113
              0.867083   -0.30974447472707
              0.181339     0.3497404257675
              0.083657    0.78478349942518
 s   19 1.00
               5430321  -3.1897990542988e-07
              813166.5  -2.527482751192e-06
              185054.4  -1.2936424483993e-05
              52414.66  -5.6630126813292e-05
              17098.68  -0.00019682005727413
              6171.994  -0.00067497226562406
              2406.481  -0.0018506055801597
              997.2584  -0.0053146653186292
              433.9289  -0.011079453265157
              196.2869  -0.024230308292992
               91.0428  -0.022389104424316
              41.38425  -0.0054045581787076
              19.93278    0.14061694931517
              9.581891    0.12974045778819
              4.234516  0.0075622803136491
              1.985814   -0.67374365852826
              0.867083    0.11237325438981
              0.181339     1.3637132388322
              0.083657    -0.3140034371294
 s    1 1.00
              0.036267                   1
 p   15 1.00
              22760.57  3.9999985784741e-05
              5387.679  0.00036099987170729
              1749.945  0.0020829992597404
              669.6653  0.0091969967315565
              284.1948   0.032659988393241
              129.6077   0.093794966666994
              62.25415    0.20827392598328
              30.92964    0.33399288130507
              15.75827    0.33249288183815
              8.094211    0.15472794501253
              4.046921   0.021270992440681
              1.967869  -0.0016899993994053
              0.925295  -0.0015159994612417
              0.352992  -0.00024199991399768
              0.127307  2.2999991826226e-05
 p   15 1.00
              22760.57  -1.5001215885864e-05
              5387.679  -0.00013101061873655
              1749.945  -0.00075506119958851
              669.6653  -0.0033592722773746
              284.1948  -0.012081979274475
              129.6077  -0.035705894051534
              62.25415  -0.082508687534372
              30.92964   -0.13990133935157
              15.75827   -0.14074040736012
              8.094211   0.038769142335428
              4.046921    0.34272277853375
              1.967869    0.45234666382235
              0.925295    0.27707645773615
              0.352992   0.043888557276744
              0.127307  -0.0028022271274795
 p   15 1.00
              22760.57  4.3825581485203e-06
              5387.679  3.6521317904336e-05
              1749.945  0.00021474534927749
              669.6653  0.00095831938180977
              284.1948  0.0034344647357237
              129.6077   0.010231812424079
              62.25415   0.023565015164594
              30.92964   0.040567879928136
              15.75827   0.040271326826753
              8.094211  -0.014776525224094
              4.046921   -0.11834221768449
              1.967869   -0.16129128753999
              0.925295   -0.10478988703655
              0.352992    0.27453805095047
              0.127307    0.82483980828029
 p   15 1.00
              22760.57  5.1379541385417e-06
              5387.679  5.0351950557709e-05
              1749.945  0.00028567025010292
              669.6653  0.0012875713071186
              284.1948   0.004569696410819
              129.6077   0.013738889366461
              62.25415   0.031309664929446
              30.92964   0.054921646968528
              15.75827    0.05409135357974
              8.094211  -0.017346760762545
              4.046921   -0.18439911885061
              1.967869   -0.21537070639774
              0.925295  -0.040726507274565
              0.352992    0.51598418231719
              0.127307    0.59714433348042
 p    1 1.00
              0.044356                   1
 d    7 1.00
               173.897   0.002794302401255
               51.8869   0.021639284780682
               19.3419   0.087356102624124
               7.97572    0.22147330354303
               3.39823    0.34771471139765
               1.40932    0.36978038602623
              0.548858    0.27381886693306
 d    7 1.00
               173.897  -0.0045125560160855
               51.8869   -0.03499344286158
               19.3419   -0.14522701462294
               7.97572   -0.37868570359548
               3.39823   -0.46586807113432
               1.40932    0.03584147598741
              0.548858    0.66024075231841
 d    1 1.00
              0.190199                   1
 f    2 1.00
                5.0286    0.42427999309102
                1.2594     0.7630249875749

3 0
 s   19 1.00
               5430321  7.8010246425392e-06
              813166.5  6.0656649445101e-05
              185054.4  0.00031889634450866
              52414.66  0.0013446867660103
              17098.68  0.0048690491527339
              6171.994   0.015610127283673
              2406.481   0.044520762252916
              997.2584     0.1103110808047
              433.9289    0.22203416136371
              196.2869    0.31337384546964
               91.0428    0.23151205971445
              41.38425   0.076409186703993
              19.93278     0.1103817807924
              9.581891    0.10943718095677
              4.234516   0.018363106804625
              1.985814  -0.00060430829484396
              0.867083  5.0922441138956e-05
              0.181339  -5.5407290358545e-05
              0.083657  3.9694813092683e-05
 s   19 1.00
               5430321  -4.4046866008088e-06
              813166.5  -3.4247859165031e-05
              185054.4  -0.00018012300669937
              52414.66  -0.00076004215261019
              17098.68  -0.0027593358472889
              6171.994  -0.0089009307983782
              2406.481  -0.025793666399122
              997.2584  -0.066238318272139
              433.9289   -0.14459206318532
              196.2869   -0.24400992532758
               91.0428   -0.25048259682054
              41.38425   0.028525644366901
              19.93278    0.51158514686851
              9.581891    0.49280392958505
              4.234516   0.087883982939956
              1.985814  -0.0058202553663382
              0.867083  0.00020134991321149
              0.181339  -0.00051825301750177
              0.083657  0.00037314865657272
 s   19 1.00
               5430321  9.7106379787194e-07
              813166.5  7.5538781391969e-06
              185054.4  3.971327797102e-05
              52414.66  0.00016782293348621
              17098.68  0.00060988416987523
              6171.994  0.0019800604617067
              2406.481  0.0058016073913474
              997.2584   0.015350995468122
              433.9289   0.035426568736048
              196.2869   0.067062112262823
               91.0428   0.080318713142885
              41.38425  -0.019284137844357
              19.93278      -0.31620684413
              9.581891   -0.45759686510116
              4.234516    0.15517927855395
              1.985814    0.72072925623997
              0.867083    0.38875063855939
              0.181339   0.019255070015728
              0.083657  -0.0071081667640107
 s   19 1.00
               5430321  -2.7214936692749e-07
              813166.5  -2.1160644800876e-06
              185054.4  -1.1132367725513e-05
              52414.66  -4.7002801968797e-05
              17098.68  -0.00017100934860001
              6171.994  -0.00055449061551447
              2406.481  -0.0016277397708751
              997.2584  -0.0043004623619226
              433.9289  -0.0099617187836318
              196.2869  -0.018843126168653
               91.0428  -0.022834595769104
              41.38425  0.0057053924904517
              19.93278   0.092977484662569
              9.581891    0.14281732357275
              4.234516  -0.061433599120175
              1.985814   -0.28212734644113
              0.867083   -0.30974447472707
              0.181339     0.3497404257675
              0.083657    0.78478349942518
 s   19 1.00
               5430321  -3.1897990542988e-07
              813166.5  -2.527482751192e-06
              185054.4  -1.2936424483993e-05
              52414.66  -5.6630126813292e-05
              17098.68  -0.00019682005727413
              6171.994  -0.00067497226562406
              2406.481  -0.0018506055801597
              997.2584  -0.0053146653186292
              433.9289  -0.011079453265157
              196.2869  -0.024230308292992
               91.0428  -0.022389104424316
              41.38425  -0.0054045581787076
              19.93278    0.14061694931517
              9.581891    0.12974045778819
              4.234516  0.0075622803136491
              1.985814   -0.67374365852826
              0.867083    0.11237325438981
              0.181339     1.3637132388322
              0.083657    -0.3140034371294
 s    1 1.00
              0.036267                   1
 p   15 1.00
              22760.57  3.9999985784741e-05
              5387.679  0.00036099987170729
              1749.945  0.0020829992597404
              669.6653  0.0091969967315565
              284.1948   0.032659988393241
              129.6077   0.093794966666994
              62.25415    0.20827392598328
              30.92964    0.33399288130507
              15.75827    0.33249288183815
              8.094211    0.15472794501253
              4.046921   0.021270992440681
              1.967869  -0.0016899993994053
              0.925295  -0.0015159994612417
              0.352992  -0.00024199991399768
              0.127307  2.2999991826226e-05
 p   15 1.00
              22760.57  -1.5001215885864e-05
              5387.679  -0.00013101061873655
              1749.945  -0.00075506119958851
              669.6653  -0.0033592722773746
              284.1948  -0.012081979274475
              129.6077  -0.035705894051534
              62.25415  -0.082508687534372
              30.92964   -0.13990133935157
              15.75827   -0.14074040736012
              8.094211   0.038769142335428
              4.046921    0.34272277853375
              1.967869    0.45234666382235
              0.925295    0.27707645773615
              0.352992   0.043888557276744
              0.127307  -0.0028022271274795
 p   15 1.00
              22760.57  4.3825581485203e-06
              5387.679  3.6521317904336e-05
              1749.945  0.00021474534927749
              669.6653  0.00095831938180977
              284.1948  0.0034344647357237
              129.6077   0.010231812424079
              62.25415   0.023565015164594
              30.92964   0.040567879928136
              15.75827   0.040271326826753
              8.094211  -0.014776525224094
              4.046921   -0.11834221768449
              1.967869   -0.16129128753999
              0.925295   -0.10478988703655
              0.352992    0.27453805095047
              0.127307    0.82483980828029
 p   15 1.00
              22760.57  5.1379541385417e-06
              5387.679  5.0351950557709e-05
              1749.945  0.00028567025010292
              669.6653  0.0012875713071186
              284.1948   0.004569696410819
              129.6077   0.013738889366461
              62.25415   0.031309664929446
              30.92964   0.054921646968528
              15.75827    0.05409135357974
              8.094211  -0.017346760762545
              4.046921   -0.18439911885061
              1.967869   -0.21537070639774
              0.925295  -0.040726507274565
              0.352992    0.51598418231719
              0.127307    0.59714433348042
 p    1 1.00
              0.044356                   1
 d    7 1.00
               173.897   0.002794302401255
               51.8869   0.021639284780682
               19.3419   0.087356102624124
               7.97572    0.22147330354303
               3.39823    0.34771471139765
               1.40932    0.36978038602623
              0.548858    0.27381886693306
 d    7 1.00
               173.897  -0.0045125560160855
               51.8869   -0.03499344286158
               19.3419   -0.14522701462294
               7.97572   -0.37868570359548
               3.39823   -0.46586807113432
               1.40932    0.03584147598741
              0.548858    0.66024075231841
 d    1 1.00
              0.190199                   1
 f    2 1.00
                5.0286    0.42427999309102
                1.2594     0.7630249875749

4 0
 s    4 1.00
              5.087399   -0.41724327618015
              4.270978    0.88601058646491
              1.915458    -1.4197529397577
              0.525596                   0
 s    4 1.00
              5.087399                   0
              4.270978                   0
              1.915458                   0
              0.525596                   1
 p    4 1.00
              3.025161     0.5381959046317
              2.382095   -0.98163982605345
              0.584426     1.2395897803447
               0.26036                   0
 p    4 1.00
              3.025161                   0
              2.382095                   0
              0.584426                   0
               0.26036                   1
 d    3 1.00
              1.576824  -0.096943997230756
               0.59239    0.40746598836057
                0.2495    0.70436297987959

5 0
 s    4 1.00
              5.087399   -0.41724327618015
              4.270978    0.88601058646491
              1.915458    -1.4197529397577
              0.525596                   0
 s    4 1.00
              5.087399                   0
              4.270978                   0
              1.915458                   0
              0.525596                   1
 p    4 1.00
              3.025161     0.5381959046317
              2.382095   -0.98163982605345
              0.584426     1.2395897803447
               0.26036                   0
 p    4 1.00
              3.025161                   0
              2.382095                   0
              0.584426                   0
               0.26036                   1
 d    3 1.00
              1.576824  -0.096943997230756
               0.59239    0.40746598836057
                0.2495    0.70436297987959

6 0
 s    4 1.00
              5.087399   -0.41724327618015
              4.270978    0.88601058646491
              1.915458    -1.4197529397577
              0.525596                   0
 s    4 1.00
              5.087399                   0
              4.270978                   0
              1.915458                   0
              0.525596                   1
 p    4 1.00
              3.025161     0.5381959046317
              2.382095   -0.98163982605345
              0.584426     1.2395897803447
               0.26036                   0
 p    4 1.00
              3.025161                   0
              2.382095                   0
              0.584426                   0
               0.26036                   1
 d    3 1.00
              1.576824  -0.096943997230756
               0.59239    0.40746598836057
                0.2495    0.70436297987959

7 0
 s    4 1.00
              5.087399   -0.41724327618015
              4.270978    0.88601058646491
              1.915458    -1.4197529397577
              0.525596                   0
 s    4 1.00
              5.087399                   0
              4.270978                   0
              1.915458                   0
              0.525596                   1
 p    4 1.00
              3.025161     0.5381959046317
              2.382095   -0.98163982605345
              0.584426     1.2395897803447
               0.26036                   0
 p    4 1.00
              3.025161                   0
              2.382095                   0
              0.584426                   0
               0.26036                   1
 d    3 1.00
              1.576824  -0.096943997230756
               0.59239    0.40746598836057
                0.2495    0.70436297987959

8 0
 s    8 1.00
                 11720  0.00070964594651845
                  1759  0.0054672722921914
                 400.8   0.027823118610189
                 113.7    0.10474773971146
                 37.03    0.28292084635691
                 13.27    0.44849523869833
                 5.025    0.27081688521277
                 1.013    0.01545029160744
 s    8 1.00
                 11720  -0.00031444341168873
                  1759  -0.0024821376810179
                 400.8  -0.012316355381583
                 113.7  -0.050538917343672
                 37.03   -0.13938490331632
                 13.27   -0.32507749481778
                 5.025   -0.22984830758785
                 1.013     1.0953793467883
 s    1 1.00
                0.3023                   1
 p    3 1.00
                  17.7   0.062679166281506
                 3.854    0.33353656587936
                 1.046    0.74123964163973
 p    1 1.00
                0.2753                   1
 d    1 1.00
                 1.185                   1

9 0
 s    8 1.00
                 11720  0.00070964594651845
                  1759  0.0054672722921914
                 400.8   0.027823118610189
                 113.7    0.10474773971146
                 37.03    0.28292084635691
                 13.27    0.44849523869833
                 5.025    0.27081688521277
                 1.013    0.01545029160744
 s    8 1.00
                 11720  -0.00031444341168873
                  1759  -0.0024821376810179
                 400.8  -0.012316355381583
                 113.7  -0.050538917343672
                 37.03   -0.13938490331632
                 13.27   -0.32507749481778
                 5.025   -0.22984830758785
                 1.013     1.0953793467883
 s    1 1.00
                0.3023                   1
 p    3 1.00
                  17.7   0.062679166281506
                 3.854    0.33353656587936
                 1.046    0.74123964163973
 p    1 1.00
                0.2753                   1
 d    1 1.00
                 1.185                   1

10 0
 s    8 1.00
                 11720  0.00070964594651845
                  1759  0.0054672722921914
                 400.8   0.027823118610189
                 113.7    0.10474773971146
                 37.03    0.28292084635691
                 13.27    0.44849523869833
                 5.025    0.27081688521277
                 1.013    0.01545029160744
 s    8 1.00
                 11720  -0.00031444341168873
                  1759  -0.0024821376810179
                 400.8  -0.012316355381583
                 113.7  -0.050538917343672
                 37.03   -0.13938490331632
                 13.27   -0.32507749481778
                 5.025   -0.22984830758785
                 1.013     1.0953793467883
 s    1 1.00
                0.3023                   1
 p    3 1.00
                  17.7   0.062679166281506
                 3.854    0.33353656587936
                 1.046    0.74123964163973
 p    1 1.00
                0.2753                   1
 d    1 1.00
                 1.185                   1

11 0
 s    8 1.00
                 11720  0.00070964594651845
                  1759  0.0054672722921914
                 400.8   0.027823118610189
                 113.7    0.10474773971146
                 37.03    0.28292084635691
                 13.27    0.44849523869833
                 5.025    0.27081688521277
                 1.013    0.01545029160744
 s    8 1.00
                 11720  -0.00031444341168873
                  1759  -0.0024821376810179
                 400.8  -0.012316355381583
                 113.7  -0.050538917343672
                 37.03   -0.13938490331632
                 13.27   -0.32507749481778
                 5.025   -0.22984830758785
                 1.013     1.0953793467883
 s    1 1.00
                0.3023                   1
 p    3 1.00
                  17.7   0.062679166281506
                 3.854    0.33353656587936
                 1.046    0.74123964163973
 p    1 1.00
                0.2753                   1
 d    1 1.00
                 1.185                   1

12 0
 s    8 1.00
                 11720  0.00070964594651845
                  1759  0.0054672722921914
                 400.8   0.027823118610189
                 113.7    0.10474773971146
                 37.03    0.28292084635691
                 13.27    0.44849523869833
                 5.025    0.27081688521277
                 1.013    0.01545029160744
 s    8 1.00
                 11720  -0.00031444341168873
                  1759  -0.0024821376810179
                 400.8  -0.012316355381583
                 113.7  -0.050538917343672
                 37.03   -0.13938490331632
                 13.27   -0.32507749481778
                 5.025   -0.22984830758785
                 1.013     1.0953793467883
 s    1 1.00
                0.3023                   1
 p    3 1.00
                  17.7   0.062679166281506
                 3.854    0.33353656587936
                 1.046    0.74123964163973
 p    1 1.00
                0.2753                   1
 d    1 1.00
                 1.185                   1

13 0
 s    8 1.00
                 11720  0.00070964594651845
                  1759  0.0054672722921914
                 400.8   0.027823118610189
                 113.7    0.10474773971146
                 37.03    0.28292084635691
                 13.27    0.44849523869833
                 5.025    0.27081688521277
                 1.013    0.01545029160744
 s    8 1.00
                 11720  -0.00031444341168873
                  1759  -0.0024821376810179
                 400.8  -0.012316355381583
                 113.7  -0.050538917343672
                 37.03   -0.13938490331632
                 13.27   -0.32507749481778
                 5.025   -0.22984830758785
                 1.013     1.0953793467883
 s    1 1.00
                0.3023                   1
 p    3 1.00
                  17.7   0.062679166281506