 &FCI NORB=  26,NELEC=24,MS2=2,
  ORBSYM=1,1,1,1,1,1,1,1,1,1,1,1,1,1,1,1,1,1,1,1,1,1,1,1,1,1,
  ISYM=1,
 &END
 0.6765504708237517    1    1    1    1
 -5.374977186009881e-05    2    1    1    1
 0.02588427057370865    2    1    2    1
 0.5436175064026585    2    2    1    1
 -9.808334500372199e-05    2    2    2    1
 0.5580853716046407    2    2    2    2
 7.416309865650182e-07    3    1    1    1
 -1.23165653394392e-07    3    1    2    1
 1.578261132015411e-07    3    1    2    2
 0.03698162164127229    3    1    3    1
 -1.497232914411338e-07    3    2    1    1
 2.16862372351536e-07    3    2    2    1
 -3.337847848894229e-07    3    2    2    2
 4.066832696150819e-05    3    2    3    1
 0.02955352633232341    3    2    3    2
 0.6090368849693368    3    3    1    1
 -2.82721257260487e-05    3    3    2    1
 0.5425947682708618    3    3    2    2
 6.80109769624542e-07    3    3    3    1
 -3.78574453610803e-07    3    3    3    2
 0.6870201523768721    3    3    3    3
 -0.001769661006423932    4    1    1    1
 -2.385816104882708e-05    4    1    2    1
 -0.0004629618705116093    4    1    2    2
 -1.433574328077439e-05    4    1    3    1
 -0.0005003443463402059    4    1    3    2
 -0.001646678393670116    4    1    3    3
 0.0008910064233455003    4    1    4    1
 -0.0001333385800473755    4    2    1    1
 -0.001313541029247019    4    2    2    1
 -0.0001451587785095423    4    2    2    2
 -0.0007699951727683577    4    2    3    1
 0.0001496578847537539    4    2    3    2
 7.592927955340695e-05    4    2    3    3
 5.284999730450217e-06    4    2    4    1
 0.003313140934035232    4    2    4    2
 -0.0002062759924035365    4    3    1    1
 -0.0002104720434783917    4    3    2    1
 -0.0001651063601952146    4    3    2    2
 -0.0001249538277424661    4    3    3    1
 9.791606377170778e-05    4    3    3    2
 -0.0001891815429601743    4    3    3    3
 -6.755013136770437e-05    4    3    4    1
 7.514992907403951e-05    4    3    4    2
 0.0001079677460155888    4    3    4    3
 0.2645639091273677    4    4    1    1
 -0.0001861904371489673    4    4    2    1
 0.3444800572821196    4    4    2    2
 -9.646650790318777e-06    4    4    3    1
 0.007840587167953599    4    4    3    2
 0.263390440043048    4    4    3    3
 0.01912529676943703    4    4    4    1
 8.961155651401051e-05    4    4    4    2
 -0.001226983168483381    4    4    4    3
 1.069326937278009    4    4    4    4
 -0.0001408183268315983    5    1    1    1
 1.820966725318736e-05    5    1    2    1
 -1.476614000394363e-05    5    1    2    2
 6.715353244575888e-05    5    1    3    1
 -5.849566128219302e-05    5    1    3    2
 -0.0001315922997036932    5    1    3    3
 9.311045467326084e-05    5    1    4    1
 4.208802007554414e-05    5    1    4    2
 8.282933259654292e-05    5    1    4    3
 0.002002355793286286    5    1    4    4
 0.0001296394423839643    5    1    5    1
 0.0003336435648173849    5    2    1    1
 -0.0001684774559907388    5    2    2    1
 0.0004207838198785794    5    2    2    2
 -9.536669157131147e-05    5    2    3    1
 -0.001691723975479808    5    2    3    2
 -0.001555762513102607    5    2    3    3
 2.17829693166682e-05    5    2    4    1
 -0.000123070600249949    5    2    4    2
 -1.901452294211978e-05    5    2    4    3
 -0.001097575312049791    5    2    4    4
 -9.280693289522248e-06    5    2    5    1
 0.005036437101760167    5    2    5    2
 0.001519806243269621    5    3    1    1
 -2.944307524377593e-05    5    3    2    1
 0.00115831804570338    5    3    2    2
 -6.332728398299028e-06    5    3    3    1
 -0.0009065965991763579    5    3    3    2
 0.001681868719197995    5    3    3    3
 0.000600812591110566    5    3    4    1
 -1.384021209133525e-05    5    3    4    2
 -7.118267847437537e-05    5    3    4    3
 0.01056634331801355    5    3    4    4
 8.362872200284059e-05    5    3    5    1
 0.000172441501970509    5    3    5    2
 0.000799792724400801    5    3    5    3
 0.0001184424168972309    5    4    1    1
 -5.834634580784616e-06    5    4    2    1
 0.0002749489790418203    5    4    2    2
 0.0005369576852515048    5    4    3    1
 -4.17364229792353e-05    5    4    3    2
 -0.0001480804108691304    5    4    3    3
 0.0001377735496033453    5    4    4    1
 0.0004260886048758425    5    4    4    2
 0.0007320334543619905    5    4    4    3
 0.0003748752496393253    5    4    4    4
 0.00104365891273207    5    4    5    1
 8.469560388200687e-05    5    4    5    2
 -6.359314780503945e-05    5    4    5    3
 0.04066422244802069    5    4    5    4
 0.2639114019994381    5    5    1    1
 -0.000269472963178251    5    5    2    1
 0.341059396597785    5    5    2    2
 0.0002038433128212012    5    5    3    1
 0.007920389102634149    5    5    3    2
 0.2649307849406887    5    5    3    3
 0.01673506434769843    5    5    4    1
 -2.161290248780931e-05    5    5    4    2
 -0.001057192017704837    5    5    4    3
 0.9800812122671702    5    5    4    4
 0.002219550741255019    5    5    5    1
 -0.0004646958772207397    5    5    5    2
 0.01180388708884095    5    5    5    3
 0.000282362692816814    5    5    5    4
 1.053535390894152    5    5    5    5
 4.785582343671895e-05    6    1    1    1
 -0.0005116673924463329    6    1    2    1
 2.625689387804405e-05    6    1    2    2
 -5.022613890592483e-05    6    1    3    1
 6.621268806937682e-05    6    1    3    2
 0.0001208653061218912    6    1    3    3
 -8.748315357145401e-06    6    1    4    1
 0.0001742521624703021    6    1    4    2
 3.531766370961389e-05    6    1    4    3
 -0.00020930105745365    6    1    4    4
 -9.166804868436417e-06    6    1    5    1
 -7.985457736097292e-06    6    1    5    2
 -8.29212968175919e-06    6    1    5    3
 2.014488245996997e-05    6    1    5    4
 -0.0002059665799519313    6    1    5    5
 9.39391073243773e-05    6    1    6    1
 -0.0068305263738991    6    2    1    1
 1.752304372412128e-05    6    2    2    1
 -0.007344309616280947    6    2    2    2
 6.340297208382011e-05    6    2    3    1
 -0.0007518652110050783    6    2    3    2
 -0.006505463489220564    6    2    3    3
 0.0003096174633202813    6    2    4    1
 5.648355530645671e-06    6    2    4    2
 -4.516545007378115e-05    6    2    4    3
 -0.00158185863162154    6    2    4    4
 -1.584743672692232e-05    6    2    5    1
 0.0001461843329130314    6    2    5    2
 7.627978287741848e-06    6    2    5    3
 -0.0004181848559253902    6    2    5    4
 -0.007281967246447772    6    2    5    5
 -3.092740689092949e-05    6    2    6    1
 0.004177692554040087    6    2    6    2
 -0.002235891465626357    6    3    1    1
 6.423390700659825e-05    6    3    2    1
 -0.001401940945834273    6    3    2    2
 5.659124337320238e-05    6    3    3    1
 -0.0001330171089558844    6    3    3    2
 -0.001812784240729356    6    3    3    3
 0.000232181547856428    6    3    4    1
 -3.67521447880882e-05    6    3    4    2
 -1.632611923361804e-05    6    3    4    3
 0.006740865901068493    6    3    4    4
 2.511112993854916e-05    6    3    5    1
 -0.000152511308742771    6    3    5    2
 0.0001529963807512598    6    3    5    3
 -2.737256317254377e-07    6    3    5    4
 0.007088336645797625    6    3    5    5
 5.30476606722889e-06    6    3    6    1
 6.574495432807095e-06    6    3    6    2
 0.0002670491803388937    6    3    6    3
 -0.000156479955126729    6    4    1    1
 0.001065907221820584    6    4    2    1
 -0.0002772766605930914    6    4    2    2
 0.0003505009437544635    6    4    3    1
 -0.0001572167417418173    6    4    3    2
 -0.0002130940546249305    6    4    3    3
 -1.022036611414812e-05    6    4    4    1
 4.141908964765368e-05    6    4    4    2
 0.0004470767187250246    6    4    4    3
 -0.0002606771650474836    6    4    4    4
 -5.334651250576617e-05    6    4    5    1
 0.0005606304691872408    6    4    5    2
 3.343918604481082e-05    6    4    5    3
 0.0003158429823430462    6    4    5    4
 -0.0001698169873098537    6    4    5    5
 0.001097796423634073    6    4    6    1
 -1.171065471945009e-05    6    4    6    2
 -6.954325718903008e-05    6    4    6    3
 0.04047059284007213    6    4    6    4
 0.0006262082127770137    6    5    1    1
 -9.554196684712565e-05    6    5    2    1
 0.000867085610728103    6    5    2    2
 -3.404035871026735e-05    6    5    3    1
 -0.0005271463783639797    6    5    3    2
 0.0003190551455449482    6    5    3    3
 -4.172397512536172e-05    6    5    4    1
 -0.0002854015726634606    6    5    4    2
 -9.522137698983493e-06    6    5    4    3
 -0.00112981554060213    6    5    4    4
 -2.085444365180457e-05    6    5    5    1
 0.003976480917812898    6    5    5    2
 0.0001889769164269574    6    5    5    3
 0.0005145730740752515    6    5    5    4
 -0.002417250462437254    6    5    5    5
 9.968557912571898e-05    6    5    6    1
 -0.0001004123859937433    6    5    6    2
 0.0005955875097976653    6    5    6    3
 -0.0001065067581976097    6    5    6    4
 0.03210323565081867    6    5    6    5
 0.2579272241542617    6    6    1    1
 -0.0003137352321955648    6    6    2    1
 0.3325032852808395    6    6    2    2
 0.000155650561924186    6    6    3    1
 0.007195247935768886    6    6    3    2
 0.2584301297699713    6    6    3    3
 0.0166485656762075    6    6    4    1
 8.852770225057937e-05    6    6    4    2
 -0.001040881960608027    6    6    4    3
 0.9645926057850897    6    6    4    4
 0.002111236000494949    6    6    5    1
 0.0007843621717375768    6    6    5    2
 0.01112940896139772    6    6    5    3
 0.0009358031936431042    6    6    5    4
 1.003530211949071    6    6    5    5
 -0.0002176629721098044    6    6    6    1
 -0.00201829676046149    6    6    6    2
 0.007853720681058371    6    6    6    3
 0.001092881487637631    6    6    6    4
 -0.001633903990026255    6    6    6    5
 1.075331915455949    6    6    6    6
 -0.0001083757712010905    7    1    1    1
 9.576769972386225e-05    7    1    2    1
 -7.694833423478686e-06    7    1    2    2
 1.614410721672804e-05    7    1    3    1
 0.0002427320152169492    7    1    3    2
 0.0002662135572443829    7    1    3    3
 5.696312571541067e-05    7    1    4    1
 -2.819327607917559e-05    7    1    4    2
 -8.346221685583313e-06    7    1    4    3
 0.001211276056527481    7    1    4    4
 6.868282416122216e-06    7    1    5    1
 -0.0001059188981121751    7    1    5    2
 2.004234449088538e-05    7    1    5    3
 4.075303992430098e-05    7    1    5    4
 0.001130334142612603    7    1    5    5
 8.795276138466092e-07    7    1    6    1
 1.239937467308509e-05    7    1    6    2
 7.289009479924377e-05    7    1    6    3
 -4.49316886326035e-05    7    1    6    4
 0.0003199173782323477    7    1    6    5
 0.001270128168063952    7    1    6    6
 9.94233031161578e-05    7    1    7    1
 0.0009919235912882057    7    2    1    1
 -7.274489740076044e-05    7    2    2    1
 0.00104229394956461    7    2    2    2
 0.0002011235544150604    7    2    3    1
 0.000151971919418542    7    2    3    2
 0.000945711657221493    7    2    3    3
 -4.255839550940472e-05    7    2    4    1
 -6.99639934329023e-05    7    2    4    2
 -0.0002103042651447859    7    2    4    3
 0.001001185363368278    7    2    4    4
 -0.0002458167052705436    7    2    5    1
 -4.887491911185766e-05    7    2    5    2
 -1.659072054495492e-05    7    2    5    3
 -0.005398181621637143    7    2    5    4
 0.0003035323895094773    7    2    5    5
 -1.736724311055982e-05    7    2    6    1
 -6.226972006946302e-05    7    2    6    2
 -4.562404048307266e-06    7    2    6    3
 -0.0004090182334701928    7    2    6    4
 -1.789528359704106e-06    7    2    6    5
 -0.000937641304062525    7    2    6    6
 -8.673222223154761e-06    7    2    7    1
 0.00385504585355934    7    2    7    2
 0.000337264276656215    7    3    1    1
 0.0002807794912435188    7    3    2    1
 0.0002055441892213653    7    3    2    2
 0.0002506132648450295    7    3    3    1
 1.221433892093675e-05    7    3    3    2
 0.0002283860652287051    7    3    3    3
 -5.01048337735898e-05    7    3    4    1
 -0.0002576323838622465    7    3    4    2
 -1.333703371618064e-05    7    3    4    3
 -0.001338945486282015    7    3    4    4
 -6.172981824181785e-06    7    3    5    1
 3.415231250429933e-06    7    3    5    2
 -3.765367336934137e-05    7    3    5    3
 0.0001799054054866894    7    3    5    4
 -0.001308883699447364    7    3    5    5
 -1.920201926058722e-05    7    3    6    1
 -7.097830912134907e-06    7    3    6    2
 -2.68764799599801e-05    7    3    6    3
 -0.0003076354805631751    7    3    6    4
 -8.158777845017496e-06    7    3    6    5
 -0.00134369681280029    7    3    6    6
 -7.159866096272106e-06    7    3    7    1
 -8.822268665548681e-05    7    3    7    2
 0.0001272642150554105    7    3    7    3
 0.0005387999257142036    7    4    1    1
 -0.0001296094227521613    7    4    2    1
 0.0008648878902596708    7    4    2    2
 -5.400568264170184e-05    7    4    3    1
 -0.0009018264825054178    7    4    3    2
 -8.701309644122941e-05    7    4    3    3
 7.209940358806468e-05    7    4    4    1
 -0.0003984852784698978    7    4    4    2
 -6.154838667542566e-05    7    4    4    3
 0.0004803047053041489    7    4    4    4
 -7.429429392292801e-06    7    4    5    1
 0.005272679346439509    7    4    5    2
 6.335210427616126e-07    7    4    5    3
 0.0008264658242943077    7    4    5    4
 -0.002787591428612314    7    4    5    5
 4.11894929723386e-05    7    4    6    1
 0.0002906412963816925    7    4    6    2
 0.0002203287093437311    7    4    6    3
 0.0002286804135631141    7    4    6    4
 0.013438344543711    7    4    6    5
 -0.0001817602009041052    7    4    6    6
 0.001086008958936575    7    4    7    1
 -8.082649524966658e-05    7    4    7    2
 -6.605491053903487e-05    7    4    7    3
 0.04059013097416816    7    4    7    4
 -0.0001557070023489094    7    5    1    1
 -0.00101083031704438    7    5    2    1
 -0.000190978396805857    7    5    2    2
 -0.0002839165455875377    7    5    3    1
 2.847144607477459e-05    7    5    3    2
 -0.0001613105449347979    7    5    3    3
 -7.443375840207857e-07    7    5    4    1
 9.057715930399336e-05    7    5    4    2
 -0.0001962088948220411    7    5    4    3
 -0.0008717403405680534    7    5    4    4
 0.0001159859830578377    7    5    5    1
 -0.0001724005320204415    7    5    5    2
 -5.216154077768002e-05    7    5    5    3
 0.0006974224290641251    7    5    5    4
 0.0004962600651461633    7    5    5    5
 -0.000454950795990274    7    5    6    1
 0.0002700796451963162    7    5    6    2
 6.19513021265446e-05    7    5    6    3
 -0.01790371553652316    7    5    6    4
 0.0009303606925035592    7    5    6    5
 0.001735119830387554    7    5    6    6
 0.0001560134699185952    7    5    7    1
 5.415486270243362e-05    7    5    7    2
 0.0007535114156905689    7    5    7    3
 0.0009513099456348339    7    5    7    4
 0.04023644621474445    7    5    7    5
 -0.000232715097230124    7    6    1    1
 -1.984930326248716e-05    7    6    2    1
 -0.0002939511197495016    7    6    2    2
 0.0002051197538789411    7    6    3    1
 1.177167133048169e-05    7    6    3    2
 -0.0003499050716958509    7    6    3    3
 3.05877551707781e-05    7    6    4    1
 0.0003771430952542195    7    6    4    2
 0.0002249093010943795    7    6    4    3
 -0.0004121813006142587    7    6    4    4
 0.0003215048986140578    7    6    5    1
 -0.0004156414240122968    7    6    5    2
 -8.12848501933769e-05    7    6    5    3
 0.01327095017235628    7    6    5    4
 -0.003193865104066813    7    6    5    5
 5.947406448347843e-05    7    6    6    1
 0.0002020195896337607    7    6    6    2
 -9.497277620629664e-05    7    6    6    3
 8.054823477490038e-05    7    6    6    4
 -0.000772527789168407    7    6    6    5
 -0.001768148051412346    7    6    6    6
 -1.389542605668191e-05    7    6    7    1
 -0.003926813395355133    7    6    7    2
 0.0003711522665789927    7    6    7    3
 -0.0008324090699196163    7    6    7    4
 0.0006146896998002855    7    6    7    5
 0.03206737105662132    7    6    7    6
 0.2569952868352307    7    7    1    1
 -0.0002068418934371662    7    7    2    1
 0.3318399594591635    7    7    2    2
 2.923014598137738e-05    7    7    3    1
 0.00705337919875047    7    7    3    2
 0.2567878235094858    7    7    3    3
 0.01703924186521243    7    7    4    1
 0.0001169077033942878    7    7    4    2
 -0.001135704758119551    7    7    4    3
 0.9801093995133752    7    7    4    4
 0.001906149345711601    7    7    5    1
 5.986067597196221e-05    7    7    5    2
 0.01060849189294013    7    7    5    3
 -0.003645078784703007    7    7    5    4
 0.9727173924026934    7    7    5    5
 -0.0002035824025752316    7    7    6    1
 0.003457141015703491    7    7    6    2
 0.00708149994634364    7    7    6    3
 0.001747116893839462    7    7    6    4
 -0.002230853420471699    7    7    6    5
 1.003484722415138    7    7    6    6
 0.001379730128341955    7    7    7    1
 0.0005621445689428854    7    7    7    2
 -0.001489661896627039    7    7    7    3
 0.0004623439675751764    7    7    7    4
 0.0004619933898762225    7    7    7    5
 -0.002771199477436755    7    7    7    6
 1.053695361258139    7    7    7    7
 0.001769700842097919    8    1    1    1
 2.374193116155182e-05    8    1    2    1
 0.0004630476943818993    8    1    2    2
 -1.431141537988146e-05    8    1    3    1
 -0.0005003501776620691    8    1    3    2
 0.001646710819268493    8    1    3    3
 5.962777819482337e-05    8    1    4    1
 -7.392291011133857e-06    8    1    4    2
 -5.264572358633231e-06    8    1    4    3
 -0.0002005805832483832    8    1    4    4
 7.10229746873937e-06    8    1    5    1
 1.748123613307e-05    8    1    5    2
 6.504211632191978e-05    8    1    5    3
 -4.926616514120217e-06    8    1    5    4
 -0.0001785541870786882    8    1    5    5
 8.581530667193441e-07    8    1    6    1
 -8.926812424857058e-05    8    1    6    2
 -5.825538840680255e-06    8    1    6    3
 3.036553982721485e-06    8    1    6    4
 -3.230133906519175e-06    8    1    6    5
 -0.0001622365861018182    8    1    6    6
 2.382004720108025e-06    8    1    7    1
 1.313381635180621e-05    8    1    7    2
 8.976818234182336e-07    8    1    7    3
 -1.477620166993841e-06    8    1    7    4
 -1.198654637730507e-06    8    1    7    5
 5.326006257408662e-07    8    1    7    6
 -0.0001534326304174224    8    1    7    7
 0.0008910080907349536    8    1    8    1
 0.0001328950832549307    8    2    1    1
 0.001313614072534536    8    2    2    1
 0.0001449737062531685    8    2    2    2
 -0.0007700147322581682    8    2    3    1
 0.0001496815397726832    8    2    3    2
 -7.616688569627216e-05    8    2    3    3
 -7.389546061977214e-06    8    2    4    1
 0.0001581777077368282    8    2    4    2
 -2.550850141552673e-06    8    2    4    3
 8.135111638390391e-05    8    2    4    4
 4.043057481612454e-05    8    2    5    1
 5.040745609312446e-05    8    2    5    2
 -1.245453821140511e-06    8    2    5    3
 2.265396508043494e-06    8    2    5    4
 8.835044174852888e-05    8    2    5    5
 -3.223483495169157e-05    8    2    6    1
 -5.79241159140344e-06    8    2    6    2
 -1.822396774332132e-05    8    2    6    3
 -6.074435499337642e-05    8    2    6    4
 1.274088084541707e-05    8    2    6    5
 8.923138649125972e-05    8    2    6    6
 -2.385667502893283e-06    8    2    7    1
 9.803679215831537e-06    8    2    7    2
 -3.896441788421515e-05    8    2    7    3
 1.627760092909724e-05    8    2    7    4
 6.263172354229525e-05    8    2    7    5
 1.791629700882677e-06    8    2    7    6
 7.984378810578929e-05    8    2    7    7
 5.237796597701775e-06    8    2    8    1
 0.003313164998985665    8    2    8    2
 -0.0002062745304478341    8    3    1    1
 -0.0002104880586393948    8    3    2    1
 -0.0001650917954395904    8    3    2    2
 0.0001249629349131847    8    3    3    1
 -9.794329555689628e-05    8    3    3    2
 -0.0001891442943301882    8    3    3    3
 5.265449436265779e-06    8    3    4    1
 2.550845769255825e-06    8    3    4    2
 1.128724136149506e-05    8    3    4    3
 -0.0001693732195700909    8    3    4    4
 1.472443601674016e-05    8    3    5    1
 -3.406336772864831e-06    8    3    5    2
 1.069905569698132e-05    8    3    5    3
 -8.743063315157383e-06    8    3    5    4
 -0.000177399697031159    8    3    5    5
 2.416130002168274e-06    8    3    6    1
 -7.061672642454889e-07    8    3    6    2
 4.142637013194887e-06    8    3    6    3
 -4.744388932905972e-06    8    3    6    4
 -2.011866867097961e-06    8    3    6    5
 -0.0001678826364584265    8    3    6    6
 9.12914214152233e-07    8    3    7    1
 -4.04449075273839e-06    8    3    7    2
 -1.208496682639794e-06    8    3    7    3
 -1.525710407706972e-06    8    3    7    4
 3.488763281732376e-06    8    3    7    5
 -1.966812615691129e-06    8    3    7    6
 -0.0001620358567970997    8    3    7    7
 6.755167576391804e-05    8    3    8    1
 -7.515798036827365e-05    8    3    8    2
 0.0001079671816240477    8    3    8    3
 0.000307889902578255    8    4    1    1
 -1.615783392320324e-06    8    4    2    1
 9.288137992539391e-05    8    4    2    2
 7.86479457242986e-10    8    4    3    1
 -7.112762558569775e-11    8    4    3    2
 0.0002681580396695099    8    4    3    3
 -3.779960160568024e-05    8    4    4    1
 -6.746859636662584e-07    8    4    4    2
 1.963893485524083e-06    8    4    4    3
 -0.0009597810415924924    8    4    4    4
 -4.748423473365813e-06    8    4    5    1
 -3.626799139134805e-07    8    4    5    2
 -2.279493668437252e-05    8    4    5    3
 -1.566170889350282e-05    8    4    5    4
 -0.0008392595370895284    8    4    5    5
 5.696372891525976e-07    8    4    6    1
 -1.761243659312496e-05    8    4    6    2
 -1.166377457004278e-05    8    4    6    3
 8.730368542163152e-07    8    4    6    4
 1.958184070673235e-06    8    4    6    5
 -0.0008322076674338566    8    4    6    6
 -2.378771985749524e-06    8    4    7    1
 4.567628984384111e-06    8    4    7    2
 2.236670065824208e-06    8    4    7    3
 -2.649515176278427e-06    8    4    7    4
 -2.198696354553849e-07    8    4    7    5
 -4.219654934302783e-06    8    4    7    6
 -0.0008500484282498441    8    4    7    7
 3.779976188015018e-05    8    4    8    1
 6.739019322635364e-07    8    4    8    2
 1.963782446490162e-06    8    4    8    3
 3.603239179148477e-06    8    4    8    4
 7.992483052053849e-05    8    5    1    1
 1.80716531643005e-05    8    5    2    1
 3.063362205167835e-05    8    5    2    2
 2.651087088475668e-05    8    5    3    1
 -1.274752316390602e-07    8    5    3    2
 8.230145003166152e-05    8    5    3    3
 -9.559119082671457e-06    8    5    4    1
 3.9598104442908e-09    8    5    4    2
 -2.480610346648386e-06    8    5    4    3
 -0.0002289407177280085    8    5    4    4
 -4.093427357560589e-06    8    5    5    1
 -5.879421206665031e-07    8    5    5    2
 -8.526343091572357e-06    8    5    5    3
 -5.27662759484757e-05    8    5    5    4
 -0.0002547792258973621    8    5    5    5
 -6.407467736046765e-07    8    5    6    1
 -5.891628746914981e-07    8    5    6    2
 -3.546123940314794e-06    8    5    6    3
 1.05175911994249e-06    8    5    6    4
 -2.746538752300544e-07    8    5    6    5
 -0.0002406848873791836    8    5    6    6
 -6.73130883072179e-07    8    5    7    1
 1.155632853174463e-05    8    5    7    2
 2.669754697531085e-07    8    5    7    3
 -1.697110065813623e-06    8    5    7    4
 -3.932752830094728e-06    8    5    7    5
 -1.507892376831452e-05    8    5    7    6
 -0.0002240660040167178    8    5    7    7
 1.138822341482037e-05    8    5    8    1
 2.721064968603278e-05    8    5    8    2
 6.500339508267453e-06    8    5    8    3
 9.560044661760911e-07    8    5    8    4
 1.245901101542269e-06    8    5    8    5
 5.465378215359899e-06    8    6    1    1
 1.018242045280501e-05    8    6    2    1
 3.941634805852594e-06    8    6    2    2
 1.723091261875509e-06    8    6    3    1
 -1.825502443261451e-06    8    6    3    2
 1.577960483202579e-06    8    6    3    3
 3.796107915825467e-07    8    6    4    1
 -5.975087929191664e-06    8    6    4    2
 -1.36154862053124e-06    8    6    4    3
 1.436460526388685e-05    8    6    4    4
 -2.333123265360169e-07    8    6    5    1
 1.122825610026429e-06    8    6    5    2
 2.475411606805486e-07    8    6    5    3
 -8.015356515200912e-07    8    6    5    4
 1.614388338830844e-05    8    6    5    5
 -3.282308777387541e-06    8    6    6    1
 4.677579790920448e-08    8    6    6    2
 -1.53841123299648e-06    8    6    6    3
 -5.535706529993888e-05    8    6    6    4
 -1.177796186264421e-05    8    6    6    5
 1.349726308707142e-05    8    6    6    6
 -5.993401562738353e-07    8    6    7    1
 6.561077166038387e-07    8    6    7    2
 8.823814873881239e-07    8    6    7    3
 -4.81746660597603e-06    8    6    7    4
 2.306369429603055e-05    8    6    7    5
 -1.871545971829177e-06    8    6    7    6
 1.080934429753534e-05    8    6    7    7
 -5.877560467088305e-07    8    6    8    1
 0.0001343786723926942    8    6    8    2
 1.829255832838576e-07    8    6    8    3
 2.24465193687015e-08    8    6    8    4
 1.081693168019321e-06    8    6    8    5
 8.600920335283005e-06    8    6    8    6
 1.285230960449176e-05    8    7    1    1
 -5.243495816902595e-06    8    7    2    1
 3.324071617575927e-06    8    7    2    2
 -1.467458652967244e-06    8    7    3    1
 -1.103440839427263e-05    8    7    3    2
 2.967128023296802e-06    8    7    3    3
 -1.756626584496454e-06    8    7    4    1
 3.315364171406606e-06    8    7    4    2
 4.317636442316719e-07    8    7    4    3
 -3.995848500218559e-05    8    7    4    4
 -1.660033015087214e-07    8    7    5    1
 1.248513610244876e-06    8    7    5    2
 -4.616525692460234e-07    8    7    5    3
 -1.977108352851201e-07    8    7    5    4
 -3.600955457786552e-05    8    7    5    5
 1.645624451521428e-07    8    7    6    1
 -9.256202905816274e-07    8    7    6    2
 -2.412997942408914e-06    8    7    6    3
 6.214729207547879e-06    8    7    6    4
 -1.659780845484516e-05    8    7    6    5
 -4.140411425110413e-05    8    7    6    6
 -3.804390833930303e-06    8    7    7    1
 -6.409797652427154e-07    8    7    7    2
 -8.241231315948353e-07    8    7    7    3
 -5.473167231463666e-05    8    7    7    4
 -1.642663290600872e-05    8    7    7    5
 2.042162983747053e-06    8    7    7    6
 -4.538278890746143e-05    8    7    7    7
 1.80601096597363e-06    8    7    8    1
 -2.283492341820202e-05    8    7    8    2
 -4.545753392693469e-08    8    7    8    3
 1.576251341126249e-07    8    7    8    4
 -1.470784915546932e-07    8    7    8    5
 -1.413715028072551e-06    8    7    8    6
 4.193659751529048e-07    8    7    8    7
 0.2645639192310272    8    8    1    1
 -0.000187907893353323    8    8    2    1
 0.3444811637941547    8    8    2    2
 9.660006547664228e-06    8    8    3    1
 -0.007840713020436605    8    8    3    2
 0.2633904791649193    8    8    3    3
 0.0002005877267074288    8    8    4    1
 -8.139919917785204e-05    8    8    4    2
 -0.0001693602500443053    8    8    4    3
 0.1394093363884844    8    8    4    4
 3.897807312933928e-05    8    8    5    1
 0.001515109258860471    8    8    5    2
 0.001537148206878252    8    8    5    3
 -3.161980907919472e-06    8    8    5    4
 0.1395842305496627    8    8    5    5
 -2.765823486325436e-05    8    8    6    1
 0.003293119599937002    8    8    6    2
 -0.0007825982195902299    8    8    6    3
 -1.761172909268303e-05    8    8    6    4
 0.0002031366921020922    8    8    6    5
 0.1386104986490317    8    8    6    6
 -2.837143965519226e-05    8    8    7    1
 -0.0006215130396331869    8    8    7    2
 0.0001021022368708935    8    8    7    3
 0.0001486188783573769    8    8    7    4
 -4.143369877075328e-05    8    8    7    5
 -0.0001032838217223309    8    8    7    6
 0.1381618647511155    8    8    7    7
 -0.01912531970859058    8    8    8    1
 -8.926558587501511e-05    8    8    8    2
 -0.001226946513486042    8    8    8    3
 -0.0009597834975314123    8    8    8    4
 -0.0002973994179636593    8    8    8    5
 -5.428211620762348e-06    8    8    8    6
 -4.359059120632188e-05    8    8    8    7
 1.069326960717043    8    8    8    8
 -0.000140618060620554    9    1    1    1
 1.816721347648983e-05    9    1    2    1
 -1.468807929302061e-05    9    1    2    2
 -6.712807380494104e-05    9    1    3    1
 5.845900195667671e-05    9    1    3    2
 -0.000131472516798165    9    1    3    3
 -7.104752205822108e-06    9    1    4    1
 -4.043340326824623e-05    9    1    4    2
 1.472475053761645e-05    9    1    4    3
 3.902797746186838e-05    9    1    4    4
 -7.020419413624126e-07    9    1    5    1
 -7.98129186282932e-06    9    1    5    2
 -5.828874104182412e-06    9    1    5    3
 -2.151301024438074e-05    9    1    5    4
 2.464662678987876e-05    9    1    5    5
 1.174425857708044e-05    9    1    6    1
 7.601649329117765e-06    9    1    6    2
 2.407748849306987e-06    9    1    6    3
 1.76097496735344e-05    9    1    6    4
 -1.289644565134338e-06    9    1    6    5
 2.2497457779109e-05    9    1    6    6
 -1.714809387858323e-06    9    1    7    1
 -1.270657543195002e-05    9    1    7    2
 1.009547545728854e-05    9    1    7    3
 -1.581770324761096e-06    9    1    7    4
 -1.976212444309678e-05    9    1    7    5
 -8.542314085307357e-06    9    1    7    6
 2.929033542882736e-05    9    1    7    7