 &FCI NORB=  26,NELEC=24,MS2=0,
  ORBSYM=1,1,1,1,1,1,1,1,1,1,1,1,1,1,1,1,1,1,1,1,1,1,1,1,1,1,
  ISYM=1,
 &END
 0.6883119951806684    1    1    1    1
 -0.0001525988373283002    2    1    1    1
 0.0275697704786053    2    1    2    1
 0.5609173518668353    2    2    1    1
 -0.000157633980288881    2    2    2    1
 0.5771778359987472    2    2    2    2
 6.053235143484309e-10    3    1    1    1
 9.035097972556107e-10    3    1    2    1
 1.479244268521017e-10    3    1    2    2
 0.07959396333702194    3    1    3    1
 -1.812762478199536e-10    3    2    1    1
 2.23694458716874e-10    3    2    2    1
 1.706892294602865e-09    3    2    2    2
 0.0001022568053472804    3    2    3    1
 0.06705139855173882    3    2    3    2
 0.6490630468573426    3    3    1    1
 -5.07609922567791e-05    3    3    2    1
 0.5846498535952639    3    3    2    2
 1.600708914938981e-10    3    3    3    1
 -7.50007945777531e-10    3    3    3    2
 0.8292059382101787    3    3    3    3
 -0.002687677845402173    4    1    1    1
 -2.288538658494418e-05    4    1    2    1
 -0.001648209348492594    4    1    2    2
 -2.740025938812913e-05    4    1    3    1
 -0.001795347887914601    4    1    3    2
 -0.002522156303788019    4    1    3    3
 0.0009751413745115598    4    1    4    1
 -0.0001683831635419278    4    2    1    1
 -0.001552403415724597    4    2    2    1
 -0.0001810976696968098    4    2    2    2
 -0.002967841640900651    4    2    3    1
 8.466161157771391e-05    4    2    3    2
 0.0003738393956279618    4    2    3    3
 2.635698688026417e-05    4    2    4    1
 0.003170391524918471    4    2    4    2
 0.0001302306827512158    4    3    1    1
 -0.0009507170666690714    4    3    2    1
 7.295173614782145e-05    4    3    2    2
 -0.0005027578161590154    4    3    3    1
 0.0002290227986739193    4    3    3    2
 0.0002515359732765279    4    3    3    3
 -6.40876007517379e-05    4    3    4    1
 0.0005582878849801292    4    3    4    2
 0.0002362556159281065    4    3    4    3
 0.2690725034561703    4    4    1    1
 -7.88675320890453e-05    4    4    2    1
 0.3370569007102677    4    4    2    2
 6.264490820379204e-05    4    4    3    1
 0.03707392509541199    4    4    3    2
 0.2715342785383165    4    4    3    3
 0.0188205902229155    4    4    4    1
 0.0001152258978998173    4    4    4    2
 -0.001492754175480359    4    4    4    3
 1.069679232491002    4    4    4    4
 -0.0002376514024686304    5    1    1    1
 2.37344610528563e-05    5    1    2    1
 -0.0001390478334279452    5    1    2    2
 -1.476561488462814e-06    5    1    3    1
 -0.0002104838478209781    5    1    3    2
 -0.0002078834157825797    5    1    3    3
 0.0001037967422554064    5    1    4    1
 -4.033166713928981e-06    5    1    4    2
 7.344072812040697e-05    5    1    4    3
 0.001995872222470938    5    1    4    4
 0.0001257256931942409    5    1    5    1
 0.0004058972070697586    5    2    1    1
 -0.0001930592237203479    5    2    2    1
 0.0004676150873632399    5    2    2    2
 -0.0003563561166520098    5    2    3    1
 -0.001503101105233993    5    2    3    2
 -0.004881900474530985    5    2    3    3
 -4.869045944953999e-06    5    2    4    1
 -9.377489823662828e-05    5    2    4    2
 -1.186947703242091e-05    5    2    4    3
 -0.0003445437781736739    5    2    4    4
 -1.586865633403067e-05    5    2    5    1
 0.004521497968063414    5    2    5    2
 -0.00145850672582865    5    3    1    1
 -0.0001154490465545146    5    3    2    1
 -0.001020970670515674    5    3    2    2
 -3.516746418132368e-05    5    3    3    1
 -0.002312424310134089    5    3    3    2
 -0.00211468611666319    5    3    3    3
 0.0006264644151161318    5    3    4    1
 -5.654421061873268e-06    5    3    4    2
 -6.044473808952122e-05    5    3    4    3
 0.01323927612820184    5    3    4    4
 8.323943403889614e-05    5    3    5    1
 0.0006644707273438841    5    3    5    2
 0.0008260219904529568    5    3    5    3
 0.0002228639921643057    5    4    1    1
 -3.377511032683834e-05    5    4    2    1
 0.0003142884645333687    5    4    2    2
 0.000412788546215792    5    4    3    1
 1.110648839467216e-05    5    4    3    2
 -4.143036301890771e-05    5    4    3    3
 0.0001363895604700363    5    4    4    1
 0.000392720583982881    5    4    4    2
 0.0008782043801321137    5    4    4    3
 0.0004178841657744083    5    4    4    4
 0.001042365232420463    5    4    5    1
 3.570576751338553e-05    5    4    5    2
 -7.762737104702354e-05    5    4    5    3
 0.04063804289162695    5    4    5    4
 0.2679767895900603    5    5    1    1
 -0.000221737178316937    5    5    2    1
 0.3341751210487693    5    5    2    2
 0.000108281685261597    5    5    3    1
 0.03689793901188995    5    5    3    2
 0.2723140388976654    5    5    3    3
 0.01641597369438112    5    5    4    1
 -3.881393607005363e-05    5    5    4    2
 -0.001324755939012246    5    5    4    3
 0.9798391534629927    5    5    4    4
 0.002210281442552175    5    5    5    1
 0.0005521586512926622    5    5    5    2
 0.01479050888497264    5    5    5    3
 0.0004914474545121003    5    5    5    4
 1.052566587519956    5    5    5    5
 6.211759942685944e-05    6    1    1    1
 -0.0005417314495888612    6    1    2    1
 4.780979829374377e-05    6    1    2    2
 -0.000607567371886745    6    1    3    1
 8.612667576319979e-05    6    1    3    2
 0.0002934622822674455    6    1    3    3
 -1.09160736951795e-05    6    1    4    1
 0.0002712179851228187    6    1    4    2
 0.0001013205215097206    6    1    4    3
 -0.0001816250184888321    6    1    4    4
 3.319988937764679e-07    6    1    5    1
 -1.13356184416218e-05    6    1    5    2
 -1.352407001309342e-05    6    1    5    3
 7.56042354352798e-06    6    1    5    4
 -0.0001948583510246352    6    1    5    5
 0.0001052725418539079    6    1    6    1
 -0.007101680897104731    6    2    1    1
 2.614078193693597e-05    6    2    2    1
 -0.007887138523888148    6    2    2    2
 9.714528969898262e-05    6    2    3    1
 -0.002912718409260836    6    2    3    2
 -0.007697721491908813    6    2    3    3
 0.0004228244207100294    6    2    4    1
 2.157609655249227e-05    6    2    4    2
 -5.075769862777611e-05    6    2    4    3
 -0.001484440640183622    6    2    4    4
 -6.241102131103347e-06    6    2    5    1
 5.04219827916901e-05    6    2    5    2
 5.645537985096771e-05    6    2    5    3
 -0.0003141798993550666    6    2    5    4
 -0.007033904559191203    6    2    5    5
 -3.259961345360906e-05    6    2    6    1
 0.004057305535394214    6    2    6    2
 -0.00264674990974512    6    3    1    1
 6.751103580402766e-05    6    3    2    1
 -0.002688490075476986    6    3    2    2
 0.0001683968490339657    6    3    3    1
 -0.0009604247924658266    6    3    3    2
 -0.002086796677155343    6    3    3    3
 0.0003094031290790184    6    3    4    1
 -3.823217654978132e-05    6    3    4    2
 -3.969318295340643e-05    6    3    4    3
 0.005612811344399698    6    3    4    4
 2.788245842871534e-05    6    3    5    1
 -7.521711870229853e-05    6    3    5    2
 0.0001855804947125342    6    3    5    3
 -2.026671066308468e-05    6    3    5    4
 0.005426743183004987    6    3    5    5
 -6.066751544186699e-06    6    3    6    1
 0.0004129777166588708    6    3    6    2
 0.0002425598735893198    6    3    6    3
 -0.0001504525839591224    6    4    1    1
 0.001295315459952843    6    4    2    1
 -0.0002406101629255321    6    4    2    2
 0.00130508884025441    6    4    3    1
 -0.0001819770340774919    6    4    3    2
 -0.0004092758048668316    6    4    3    3
 -1.512688651417571e-06    6    4    4    1
 -8.529115689978218e-05    6    4    4    2
 0.0004819291571744756    6    4    4    3
 0.000351262264923894    6    4    4    4
 -5.354502525313103e-05    6    4    5    1
 0.0005426018331694075    6    4    5    2
 5.477568846724454e-05    6    4    5    3
 -9.945750694947103e-05    6    4    5    4
 -0.0006106543572169233    6    4    5    5
 0.00126618430481225    6    4    6    1
 6.615550168699172e-06    6    4    6    2
 -0.0001119308812555842    6    4    6    3
 0.04699233279297881    6    4    6    4
 0.0007313015372530984    6    5    1    1
 -0.0001092662368370182    6    5    2    1
 0.0009411868226281714    6    5    2    2
 -0.0001246743377862497    6    5    3    1
 -0.0003224196408577738    6    5    3    2
 -0.0004172735210209509    6    5    3    3
 -4.518026694095937e-05    6    5    4    1
 -0.0002004343889474748    6    5    4    2
 -1.917454219422316e-05    6    5    4    3
 -0.0009486682019744993    6    5    4    4
 -1.598906580039861e-05    6    5    5    1
 0.002837412451291751    6    5    5    2
 0.0003274655361132113    6    5    5    3
 0.000223770836944248    6    5    5    4
 -0.0002320777456274309    6    5    5    5
 8.812435554442402e-05    6    5    6    1
 -0.0002929047381835591    6    5    6    2
 0.000613666702644716    6    5    6    3
 -0.0002066927782537925    6    5    6    4
 0.02853805465798138    6    5    6    5
 0.2610624544807114    6    6    1    1
 -0.0002654619059479337    6    6    2    1
 0.3247305663881098    6    6    2    2
 2.237778908970119e-05    6    6    3    1
 0.03442966667820028    6    6    3    2
 0.2640810022118384    6    6    3    3
 0.01649580956809016    6    6    4    1
 0.0001198597911139284    6    6    4    2
 -0.001314924790532163    6    6    4    3
 0.9676870256645875    6    6    4    4
 0.002082403840184578    6    6    5    1
 0.001058817606703051    6    6    5    2
 0.01385343493179768    6    6    5    3
 0.0008774587746435604    6    6    5    4
 0.995663994030668    6    6    5    5
 -0.0002243606214661049    6    6    6    1
 -0.00141296867170636    6    6    6    2
 0.006300349123108222    6    6    6    3
 -0.0001443498966550618    6    6    6    4
 -0.0002704887462323097    6    6    6    5
 1.05224267600484    6    6    6    6
 -0.000180465010882637    7    1    1    1
 0.0001057739014813793    7    1    2    1
 -9.310361471733567e-05    7    1    2    2
 0.0001504342374773729    7    1    3    1
 0.0001530760923589874    7    1    3    2
 0.000930207993551479    7    1    3    3
 6.185395580137216e-05    7    1    4    1
 -4.109098624832379e-05    7    1    4    2
 -1.833850598106951e-05    7    1    4    3
 0.001201896339250718    7    1    4    4
 7.0067050458526e-06    7    1    5    1
 -0.0001789612161812972    7    1    5    2
 -3.196263570188258e-05    7    1    5    3
 3.247502155904563e-05    7    1    5    4
 0.001143009593040729    7    1    5    5
 9.447986274318153e-07    7    1    6    1
 1.67382670230923e-05    7    1    6    2
 5.873052248498167e-05    7    1    6    3
 -6.870282510627231e-05    7    1    6    4
 0.0002403551936660178    7    1    6    5
 0.001255060216028252    7    1    6    6
 0.0001187089066529151    7    1    7    1
 0.001059618364381906    7    2    1    1
 -8.400787389861105e-05    7    2    2    1
 0.00113970569740249    7    2    2    2
 7.594983854464765e-05    7    2    3    1
 0.0004989151372015966    7    2    3    2
 0.001216504341406483    7    2    3    3
 -6.430778379317268e-05    7    2    4    1
 -2.257561824766467e-05    7    2    4    2
 -0.0001892771526234086    7    2    4    3
 0.0007399763145401481    7    2    4    4
 -0.0002658114188654853    7    2    5    1
 -3.41505623383636e-05    7    2    5    2
 -3.054576942113331e-05    7    2    5    3
 -0.00462662565518187    7    2    5    4
 0.0002524352436200277    7    2    5    5
 -8.268126870917071e-06    7    2    6    1
 -0.0001640418381189706    7    2    6    2
 -3.047652341774886e-05    7    2    6    3
 -0.0004250459170070013    7    2    6    4
 3.751654009490234e-05    7    2    6    5
 -0.0007142402241161798    7    2    6    6
 -5.425775771549117e-06    7    2    7    1
 0.003114382877002877    7    2    7    2
 0.0004677096483163752    7    3    1    1
 0.0001927276938464999    7    3    2    1
 0.0004496179755274222    7    3    2    2
 0.0007268980774092318    7    3    3    1
 0.0001690982362982516    7    3    3    2
 0.0003115358116197948    7    3    3    3
 -6.283046590257012e-05    7    3    4    1
 -0.0002102782689317087    7    3    4    2
 -8.52515103111025e-05    7    3    4    3
 -0.001165931143735771    7    3    4    4
 -3.691203780241225e-05    7    3    5    1
 -1.148701835168838e-05    7    3    5    2
 -4.833189482154174e-05    7    3    5    3
 -0.0001820901775999227    7    3    5    4
 -0.001151184417989738    7    3    5    5
 -3.075590713436816e-05    7    3    6    1
 -3.092552470059713e-05    7    3    6    2
 -2.308462566404642e-05    7    3    6    3
 -0.0004456776128732407    7    3    6    4
 1.327575098080975e-06    7    3    6    5
 -0.001214191563174754    7    3    6    6
 -1.935381098489998e-06    7    3    7    1
 0.0001891183837436853    7    3    7    2
 0.0001057749739151451    7    3    7    3
 0.0007318119126603634    7    4    1    1
 -0.0001645859809632733    7    4    2    1
 0.001030453485635931    7    4    2    2
 -0.0001748242114981562    7    4    3    1
 -0.0006276757215729614    7    4    3    2
 -0.001097260939078867    7    4    3    3
 5.809335684594653e-05    7    4    4    1
 -0.0003573889817778121    7    4    4    2
 -8.723897966680534e-05    7    4    4    3
 0.0005004883980274282    7    4    4    4
 -8.415409772775324e-06    7    4    5    1
 0.004700290506579823    7    4    5    2
 0.0002051225834323388    7    4    5    3
 0.0005269288872046071    7    4    5    4
 -0.001757725770551288    7    4    5    5
 1.684773284465878e-05    7    4    6    1
 0.0001880629910448994    7    4    6    2
 0.0002214833220541525    7    4    6    3
 -0.0003928311863899758    7    4    6    4
 0.01055574614886478    7    4    6    5
 5.302605994201461e-05    7    4    6    6
 0.001095425521856712    7    4    7    1
 -9.585620198580965e-06    7    4    7    2
 -5.516857543499681e-05    7    4    7    3
 0.04065497311625969    7    4    7    4
 -0.0001523077726347099    7    5    1    1
 -0.00121163571088868    7    5    2    1
 -0.0001993355239488084    7    5    2    2
 -0.001241899507948013    7    5    3    1
 -2.500264199338208e-05    7    5    3    2
 -0.0001157592651459144    7    5    3    3
 -4.429143524116689e-06    7    5    4    1
 0.0001702998583287672    7    5    4    2
 -0.0001952225862969924    7    5    4    3
 -0.00128840594374813    7    5    4    4
 0.0001232642360689897    7    5    5    1
 -5.351570259211032e-05    7    5    5    2
 -6.279482206068303e-05    7    5    5    3
 0.001647729499453311    7    5    5    4
 0.0003528036997236681    7    5    5    5
 -0.0005187577447192061    7    5    6    1
 0.0002737377556921139    7    5    6    2
 9.582951148977505e-05    7    5    6    3
 -0.02086079200137897    7    5    6    4
 0.001061044210660516    7    5    6    5
 0.001716563251728436    7    5    6    6
 0.0001845756437675371    7    5    7    1
 -8.946406405383759e-05    7    5    7    2
 0.0008679325478103067    7    5    7    3
 0.001954768424896624    7    5    7    4
 0.04041497480981038    7    5    7    5
 -0.0002560986243062358    7    6    1    1
 -1.094722120678538e-05    7    6    2    1
 -0.0004115073189469845    7    6    2    2
 0.0001388086392684617    7    6    3    1
 -0.0001007139980769491    7    6    3    2
 -0.0003287579212917699    7    6    3    3
 2.724239987755444e-05    7    6    4    1
 0.0002685673274114937    7    6    4    2
 0.0002207753601185858    7    6    4    3
 -0.0004111065216428712    7    6    4    4
 0.0002359247745157308    7    6    5    1
 -0.0003275880659885661    7    6    5    2
 -8.516876143833091e-05    7    6    5    3
 0.01021946628647294    7    6    5    4
 -0.002433282390943392    7    6    5    5
 5.89778047160846e-05    7    6    6    1
 0.0004074251415190511    7    6    6    2
 -4.478115106789474e-05    7    6    6    3
 0.0002613348848175468    7    6    6    4
 -0.0006808210841700339    7    6    6    5
 -0.0003872024202306668    7    6    6    6
 -1.425606211014313e-05    7    6    7    1
 -0.002558264142619747    7    6    7    2
 0.0001162207895753019    7    6    7    3
 -0.0008646110730712478    7    6    7    4
 0.0006673151748646149    7    6    7    5
 0.02820434926431765    7    6    7    6
 0.2599984335104906    7    7    1    1
 -0.000145156197567798    7    7    2    1
 0.3232256304813849    7    7    2    2
 3.512721022353036e-05    7    7    3    1
 0.03377645835158881    7    7    3    2
 0.2622720283868137    7    7    3    3
 0.01682486315615625    7    7    4    1
 0.0001836934057885896    7    7    4    2
 -0.001387435374241924    7    7    4    3
 0.9796879874470935    7    7    4    4
 0.001940884241153457    7    7    5    1
 0.0004814902564335258    7    7    5    2
 0.01337187375567532    7    7    5    3
 -0.002557462399417928    7    7    5    4
 0.9719240126891521    7    7    5    5
 -0.0001864757457370116    7    7    6    1
 0.003875345716167081    7    7    6    2
 0.006079722801082772    7    7    6    3
 0.001556347888512408    7    7    6    4
 -0.001525699520130877    7    7    6    5
 0.9958388075342761    7    7    6    6
 0.001384807086890286    7    7    7    1
 -0.0001094721580805063    7    7    7    2
 -0.001309675779125022    7    7    7    3
 0.0005392558261735082    7    7    7    4
 0.0003406638047786183    7    7    7    5
 -0.0003001754846340438    7    7    7    6
 1.052092610023879    7    7    7    7
 0.002687677673042974    8    1    1    1
 2.28854615467498e-05    8    1    2    1
 0.001648209116671858    8    1    2    2
 -2.740040502757243e-05    8    1    3    1
 -0.001795347989682497    8    1    3    2
 0.002522156939707036    8    1    3    3
 6.316110228552842e-05    8    1    4    1
 2.396346521632243e-06    8    1    4    2
 -2.335194857546828e-06    8    1    4    3
 3.053723031291447e-05    8    1    4    4
 9.292650113631604e-06    8    1    5    1
 -1.852811530395943e-06    8    1    5    2
 3.60907404476948e-05    8    1    5    3
 -4.270544109357713e-06    8    1    5    4
 5.297340469614034e-05    8    1    5    5
 -4.482467871418748e-07    8    1    6    1
 -3.433363498719214e-05    8    1    6    2
 1.374716346949305e-05    8    1    6    3
 1.179042096267398e-07    8    1    6    4
 -6.447032735542315e-07    8    1    6    5
 6.779989652351598e-05    8    1    6    6
 2.187264101118119e-06    8    1    7    1
 4.69091184666241e-06    8    1    7    2
 -3.17386091242194e-06    8    1    7    3
 -6.560302426477312e-07    8    1    7    4
 1.194634980659611e-06    8    1    7    5
 9.790525580815324e-07    8    1    7    6
 7.6931064638819e-05    8    1    7    7
 0.0009751412340575752    8    1    8    1
 0.000168384294813594    8    2    1    1
 0.001552403132118461    8    2    2    1
 0.0001810989695875242    8    2    2    2
 -0.002967841578391178    8    2    3    1
 8.466132986160951e-05    8    2    3    2
 -0.000373838894801903    8    2    3    3
 2.39632850826667e-06    8    2    4    1
 0.0001900802778033181    8    2    4    2
 4.014648011287381e-06    8    2    4    3
 -7.989236007195572e-06    8    2    4    4
 -2.127682318298183e-06    8    2    5    1
 5.331042380227436e-05    8    2    5    2
 -3.474921666227279e-07    8    2    5    3
 3.12290248129272e-06    8    2    5    4
 3.616649164018229e-06    8    2    5    5
 3.224440149086098e-05    8    2    6    1
 -5.930992429392308e-07    8    2    6    2
 -1.037936697041264e-05    8    2    6    3
 -7.548717888411834e-05    8    2    6    4
 1.510021360273813e-05    8    2    6    5
 8.867678351882707e-06    8    2    6    6
 -1.366378961567698e-05    8    2    7    1
 1.057389372327621e-05    8    2    7    2
 -3.29884856639899e-05    8    2    7    3
 1.834231339555979e-05    8    2    7    4
 8.013479485037397e-05    8    2    7    5
 1.689368396328691e-06    8    2    7    6
 6.776206544154127e-08    8    2    7    7
 2.63570827841494e-05    8    2    8    1
 0.003170391529580623    8    2    8    2
 0.0001302304128618542    8    3    1    1
 -0.0009507171467508362    8    3    2    1
 7.295141280287061e-05    8    3    2    2
 0.0005027582978286904    8    3    3    1
 -0.0002290230038540016    8    3    3    2
 0.0002515359148611054    8    3    3    3
 2.335199514690748e-06    8    3    4    1
 -4.014672931838851e-06    8    3    4    2
 2.664170143712608e-05    8    3    4    3
 -2.803663489740845e-05    8    3    4    4
 1.061490666144085e-05    8    3    5    1
 -2.272413860176423e-06    8    3    5    2
 1.087089149525483e-05    8    3    5    3
 -8.55863044514485e-06    8    3    5    4
 -3.260200780415655e-05    8    3    5    5
 4.884698842419593e-06    8    3    6    1
 -3.236288194968285e-06    8    3    6    2
 1.465160526604507e-06    8    3    6    3
 -1.38103411613021e-05    8    3    6    4
 8.436515460692398e-07    8    3    6    5
 -2.787939211215112e-05    8    3    6    6
 -4.596372637989898e-07    8    3    7    1
 -4.125124738332145e-06    8    3    7    2
 8.056767417152879e-07    8    3    7    3
 2.991017883900143e-06    8    3    7    4
 1.023503816865848e-05    8    3    7    5
 -2.523254711223697e-06    8    3    7    6
 -2.517242427854372e-05    8    3    7    7
 6.408762883355197e-05    8    3    8    1
 -0.0005582881218669871    8    3    8    2
 0.0002362557426785705    8    3    8    3
 0.0003936673359220815    8    4    1    1
 2.560114645135327e-06    8    4    2    1
 0.0002079459167717749    8    4    2    2
 2.217154063483984e-12    8    4    3    1
 -1.119993443467348e-11    8    4    3    2
 0.0003668901882389828    8    4    3    3
 -4.327626739296266e-05    8    4    4    1
 -2.679308080877197e-06    8    4    4    2
 2.203025182525779e-06    8    4    4    3
 -0.0009724265272225725    8    4    4    4
 -5.219338109563026e-06    8    4    5    1
 -1.953288657774346e-07    8    4    5    2
 -2.827622427040544e-05    8    4    5    3
 -1.486708366161853e-05    8    4    5    4
 -0.0008472689038398723    8    4    5    5
 4.003073267808599e-07    8    4    6    1
 -2.158638846461992e-05    8    4    6    2
 -1.426029682758124e-05    8    4    6    3
 -6.930630859706597e-07    8    4    6    4
 2.276212112377114e-06    8    4    6    5
 -0.0008484915544182353    8    4    6    6
 -2.645556035806335e-06    8    4    7    1
 5.066546056741814e-06    8    4    7    2
 3.172018677896083e-06    8    4    7    3
 -2.10353349514896e-06    8    4    7    4
 5.434438221086996e-07    8    4    7    5
 -3.052628633333311e-06    8    4    7    6
 -0.0008634902577853866    8    4    7    7
 4.327626432979766e-05    8    4    8    1
 2.679293330276273e-06    8    4    8    2
 2.203029067978296e-06    8    4    8    3
 4.251027385166176e-06    8    4    8    4
 9.691319862216549e-05    8    5    1    1
 3.93233271369946e-06    8    5    2    1
 5.626860136006353e-05    8    5    2    2
 1.845260389970817e-05    8    5    3    1
 5.406530987806801e-07    8    5    3    2
 0.0001012984803527184    8    5    3    3
 -9.561438804090371e-06    8    5    4    1
 9.855152372255467e-10    8    5    4    2
 -2.557592119135376e-06    8    5    4    3
 -0.000214104615189903    8    5    4    4
 -5.538136792700365e-06    8    5    5    1
 -2.173933112277832e-06    8    5    5    2
 -8.847241639220366e-06    8    5    5    3
 -5.423641135454425e-05    8    5    5    4
 -0.0002389931757363303    8    5    5    5
 7.67022014608301e-08    8    5    6    1
 -7.006149578383452e-07    8    5    6    2
 -2.96553034488414e-06    8    5    6    3
 1.881302186858747e-06    8    5    6    4
 -1.414149859514879e-06    8    5    6    5
 -0.0002233176751861289    8    5    6    6
 -6.459732693233077e-07    8    5    7    1
 1.277864894989983e-05    8    5    7    2
 2.137544625095673e-06    8    5    7    3
 -2.671382835977357e-06    8    5    7    4
 -5.437318373041613e-06    8    5    7    5
 -1.125458779258872e-05    8    5    7    6
 -0.0002116202663601892    8    5    7    7
 1.140185174177601e-05    8    5    8    1
 1.315915443587816e-05    8    5    8    2
 4.171251852417698e-06    8    5    8    3
 1.026925297191909e-06    8    5    8    4
 9.654026684235218e-07    8    5    8    5
 2.420024127231112e-06    8    6    1    1
 4.02520350493317e-05    8    6    2    1
 5.082825979822418e-06    8    6    2    2
 -1.312542892562291e-05    8    6    3    1
 -1.094142297002921e-06    8    6    3    2
 -1.16937764671687e-05    8    6    3    3
 7.856736731070239e-08    8    6    4    1
 -7.809989675638049e-06    8    6    4    2
 -3.942044153523301e-06    8    6    4    3
 2.295402230882778e-06    8    6    4    4
 3.420453808808943e-09    8    6    5    1
 2.003748650752456e-06    8    6    5    2
 6.214871510237387e-07    8    6    5    3
 9.276590111865595e-08    8    6    5    4
 7.118974288813116e-06    8    6    5    5
 -4.277513889673505e-06    8    6    6    1
 -9.855448432467026e-07    8    6    6    2
 -8.912221956931029e-07    8    6    6    3
 -6.708228292685037e-05    8    6    6    4
 -9.352043174895159e-06    8    6    6    5
 3.827459376966157e-06    8    6    6    6
 -6.256187346897583e-07    8    6    7    1
 6.269171027834975e-07    8    6    7    2
 8.682532756640728e-07    8    6    7    3
 -2.437075823216623e-06    8    6    7    4
 2.852489642423395e-05    8    6    7    5
 -2.281326732195013e-06    8    6    7    6
 -1.545595743230507e-06    8    6    7    7
 1.238555708323312e-07    8    6    8    1
 0.0001343312290672505    8    6    8    2
 -1.439758575667907e-05    8    6    8    3
 9.236360267756107e-08    8    6    8    4
 7.204975865360652e-07    8    6    8    5
 7.937721529082562e-06    8    6    8    6
 1.867115180643824e-05    8    7    1    1
 -9.674329901847679e-06    8    7    2    1
 9.423476185900333e-06    8    7    2    2
 -2.127465717600429e-06    8    7    3    1
 -1.12303100344722e-05    8    7    3    2
 -8.109955452922558e-06    8    7    3    3
 -2.005403612446168e-06    8    7    4    1
 3.202413778582495e-06    8    7    4    2
 1.360130620708895e-06    8    7    4    3
 -4.186436753304813e-05    8    7    4    4
 -1.839124124819213e-07    8    7    5    1
 5.631052412656929e-06    8    7    5    2
 1.673211724747977e-06    8    7    5    3
 1.48757276370246e-06    8    7    5    4
 -3.901736862164431e-05    8    7    5    5
 1.675705695019266e-07    8    7    6    1
 -8.441370945153339e-07    8    7    6    2
 -2.405809201746752e-06    8    7    6    3
 7.949654301791851e-06    8    7    6    4
 -1.267499421437789e-05    8    7    6    5
 -4.311609897055378e-05    8    7    6    6
 -5.117945600538263e-06    8    7    7    1
 -1.669612834860447e-06    8    7    7    2
 -6.600654629337415e-07    8    7    7    3
 -5.677177467190559e-05    8    7    7    4
 -1.721466732251438e-05    8    7    7    5
 2.351409418090535e-06    8    7    7    6
 -4.797314499437712e-05    8    7    7    7
 2.048984858969005e-06    8    7    8    1
 -2.242065066039167e-05    8    7    8    2
 2.527612811411352e-06    8    7    8    3
 1.767191041311504e-07    8    7    8    4
 -8.479826968145307e-08    8    7    8    5
 -1.293336303594778e-06    8    7    8    6
 4.687016098717894e-07    8    7    8    7
 0.2690725021695068    8    8    1    1
 -7.886769953944598e-05    8    8    2    1
 0.3370568951894229    8    8    2    2
 -6.264512407409371e-05    8    8    3    1
 -0.03707392390304708    8    8    3    2
 0.2715342784918865    8    8    3    3
 -3.053727214493113e-05    8    8    4    1
 7.988716332501351e-06    8    8    4    2
 -2.80364306063469e-05    8    8    4    3
 0.1404420637027375    8    8    4    4
 1.358024344473605e-05    8    8    5    1
 0.0007029502348103186    8    8    5    2
 0.0001631630188416991    8    8    5    3
 2.655283444588805e-05    8    8    5    4
 0.1404880394018305    8    8    5    5
 -1.881541745765291e-05    8    8    6    1
 0.003445444515297925    8    8    6    2
 -0.0008838623472276025    8    8    6    3
 -1.652344091518635e-05    8    8    6    4
 0.0002521930220075711    8    8    6    5
 0.1392034129919812    8    8    6    6
 -5.509155053346775e-05    8    8    7    1
 -0.0006265187860130752    8    8    7    2
 0.0001486800794776407    8    8    7    3
 0.0002139337857149036    8    8    7    4
 -4.06148495837272e-05    8    8    7    5
 -9.855923617546408e-05    8    8    7    6
 0.1387823246067714    8    8    7    7
 -0.01882058870984391    8    8    8    1
 -0.0001152253979744592    8    8    8    2
 -0.001492755103241025    8    8    8    3
 -0.0009724265154946425    8    8    8    4
 -0.0002733695025885172    8    8    8    5
 1.583567141843917e-06    8    8    8    6
 -4.42811792441722e-05    8    8    8    7
 1.069679230793411    8    8    8    8
 -0.0002376518726030369    9    1    1    1
 2.37344655205583e-05    9    1    2    1
 -0.0001390481183763607    9    1    2    2
 1.476559984037347e-06    9    1    3    1
 0.0002104841197146278    9    1    3    2
 -0.0002078837307591583    9    1    3    3
 -9.292658645548046e-06    9    1    4    1
 2.127676939098388e-06    9    1    4    2
 1.061490502350072e-05    9    1    4    3
 1.358022300879557e-05    9    1    4    4
 1.467987554663786e-05    9    1    5    1
 -1.926907150438888e-07    9    1    5    2
 -3.225107618940503e-06    9    1    5    3
 -1.51513982206467e-05    9    1    5    4
 3.741943391187836e-06    9    1    5    5
 1.331205250007023e-06    9    1    6    1
 1.009610497320427e-06    9    1    6    2
 -2.710187871568119e-06    9    1    6    3
 -2.845341705755959e-07    9    1    6    4
 1.548255398496878e-07    9    1    6    5
 2.465891706707933e-06    9    1    6    6
 -6.738357212878966e-07    9    1    7    1
 -6.979334409160687e-06    9    1    7    2
 -1.995929126202174e-06    9    1    7    3
 4.000199958479716e-07    9    1    7    4
 -1.336683610601372e-06    9    1    7    5
 -5.04151078382328e-06    9    1    7    6
 4.722116087596054e-06    9    1    7    7