 &FCI NORB=  26,NELEC=24,MS2=2,
  ORBSYM=1,1,1,1,1,1,1,1,1,1,1,1,1,1,1,1,1,1,1,1,1,1,1,1,1,1,
  ISYM=1,
 &END
 0.6765748185137125    1    1    1    1
 -5.453461856096723e-05    2    1    1    1
 0.02589324913997423    2    1    2    1
 0.5436969678680673    2    2    1    1
 -9.860277356953375e-05    2    2    2    1
 0.5581917565631318    2    2    2    2
 -9.481836055607628e-07    3    1    1    1
 1.26189943824104e-07    3    1    2    1
 -1.998505500838987e-07    3    1    2    2
 0.03698203357072091    3    1    3    1
 3.814845397303124e-08    3    2    1    1
 -2.776720215176984e-07    3    2    2    1
 2.517957280843258e-07    3    2    2    2
 4.059494571053645e-05    3    2    3    1
 0.02956110940100264    3    2    3    2
 0.609069977563932    3    3    1    1
 -2.896469666089311e-05    3    3    2    1
 0.5426820016519061    3    3    2    2
 -8.7186682028594e-07    3    3    3    1
 2.733978886435891e-07    3    3    3    2
 0.6870644347912714    3    3    3    3
 -0.001464549681139622    4    1    1    1
 -5.128430616241741e-05    4    1    2    1
 -0.0004039955997538859    4    1    2    2
 -4.622077883609061e-05    4    1    3    1
 -0.0004682544450398812    4    1    3    2
 -0.001447669124613584    4    1    3    3
 0.0006167534894368192    4    1    4    1
 -0.0004973410911012859    4    2    1    1
 -0.001059176830289179    4    2    2    1
 -0.0005576632651764431    4    2    2    2
 -0.0006782193678337789    4    2    3    1
 0.0008194527250812095    4    2    3    2
 0.0005067476626762683    4    2    3    3
 -4.205855961131072e-05    4    2    4    1
 0.003768850217503099    4    2    4    2
 -0.0009274856662971759    4    3    1    1
 -0.0002358541027193831    4    3    2    1
 -0.0007006132511354454    4    3    2    2
 -0.0001636914904850646    4    3    3    1
 0.0004716421438874013    4    3    3    2
 -0.0009589173766171562    4    3    3    3
 -0.0002787604510389081    4    3    4    1
 0.0001894169660614255    4    3    4    2
 0.0002871716814572276    4    3    4    3
 0.2637116585257787    4    4    1    1
 -0.0003449994051018114    4    4    2    1
 0.342570582866723    4    4    2    2
 -0.0004044464693208219    4    4    3    1
 0.008208498292747822    4    4    3    2
 0.2634437119802334    4    4    3    3
 0.01535353671338722    4    4    4    1
 0.0001443079725267136    4    4    4    2
 -0.005849400557152875    4    4    4    3
 1.065237892128113    4    4    4    4
 -0.0004664568921230227    5    1    1    1
 -3.064064606657209e-05    5    1    2    1
 -0.0001203211344412956    5    1    2    2
 4.286751514258444e-05    5    1    3    1
 -0.0003044058058083663    5    1    3    2
 -0.0006480992377168355    5    1    3    3
 0.0001741823592473253    5    1    4    1
 5.93912698216506e-05    5    1    4    2
 -3.43455295268272e-05    5    1    4    3
 0.004867159666728065    5    1    4    4
 0.0001741325724813698    5    1    5    1
 -0.0001303801641998017    5    2    1    1
 -0.0003975427132242092    5    2    2    1
 -7.766370731645037e-05    5    2    2    2
 -0.000372070682676574    5    2    3    1
 -0.001353412264158087    5    2    3    2
 -0.001545000258216168    5    2    3    3
 -1.306608159200419e-05    5    2    4    1
 -0.0005413332162901986    5    2    4    2
 4.957301404946378e-05    5    2    4    3
 -0.005245910632096533    5    2    4    4
 0.000168476937811661    5    2    5    1
 0.004557267178245674    5    2    5    2
 0.001035663518562884    5    3    1    1
 -0.0002356593292488238    5    3    2    1
 0.0008068620016465493    5    3    2    2
 -0.0001800805789920932    5    3    3    1
 -0.0006905437100845254    5    3    3    2
 0.001219139153828573    5    3    3    3
 0.0003745175722724216    5    3    4    1
 8.147271684492583e-05    5    3    4    2
 -0.0002640332401032329    5    3    4    3
 0.008600555152064336    5    3    4    4
 0.000170229040371255    5    3    5    1
 0.0001473907009270323    5    3    5    2
 0.000542246910050347    5    3    5    3
 -0.001012230522530162    5    4    1    1
 -3.121600647948645e-06    5    4    2    1
 -0.0008426345577234953    5    4    2    2
 0.0002496989049644089    5    4    3    1
 0.0003451769997764766    5    4    3    2
 -0.001433297421430357    5    4    3    3
 0.0003812147826238253    5    4    4    1
 0.00237949485443624    5    4    4    2
 0.0004962404696726823    5    4    4    3
 0.001546611374849645    5    4    4    4
 0.0008512332166791363    5    4    5    1
 -0.0005379371480509188    5    4    5    2
 -0.0003553051814271103    5    4    5    3
 0.03816455738144419    5    4    5    4
 0.2616605669638526    5    5    1    1
 0.0006862799317420433    5    5    2    1
 0.3381684443176899    5    5    2    2
 0.000604860809134328    5    5    3    1
 0.007852964724924409    5    5    3    2
 0.2622417716340932    5    5    3    3
 0.01361730475672966    5    5    4    1
 0.001352921424509839    5    5    4    2
 -0.004944704108483207    5    5    4    3
 0.9816874993797607    5    5    4    4
 0.005379953364632413    5    5    5    1
 -0.0002221685805627593    5    5    5    2
 0.00963370846151063    5    5    5    3
 0.001567551740368129    5    5    5    4
 1.053777939004128    5    5    5    5
 5.754531348731988e-05    6    1    1    1
 -0.0005147628946531782    6    1    2    1
 2.835299214133932e-05    6    1    2    2
 -5.154206581595365e-05    6    1    3    1
 5.870996357631473e-05    6    1    3    2
 0.0001164343597970068    6    1    3    3
 -7.520435652801757e-06    6    1    4    1
 0.0001601340770191691    6    1    4    2
 4.119763429015423e-05    6    1    4    3
 -0.0004188107189606672    6    1    4    4
 -1.063791928270866e-05    6    1    5    1
 5.029807840410765e-05    6    1    5    2
 1.11698809797511e-05    6    1    5    3
 -4.531159630805565e-05    6    1    5    4
 0.0001110999123146344    6    1    5    5
 9.368666182250385e-05    6    1    6    1
 -0.006861309642243754    6    2    1    1
 2.369317965892286e-05    6    2    2    1
 -0.007375351722570441    6    2    2    2
 5.810296640493571e-05    6    2    3    1
 -0.0007821021232420211    6    2    3    2
 -0.006561441080063666    6    2    3    3
 0.0002726440887364339    6    2    4    1
 -4.816846246169772e-05    6    2    4    2
 -3.712659000069171e-05    6    2    4    3
 -0.002335426426580068    6    2    4    4
 6.161963251096657e-05    6    2    5    1
 0.0001571864255685864    6    2    5    2
 1.0059765701788e-06    6    2    5    3
 0.002257230497669664    6    2    5    4
 -0.003834285564658941    6    2    5    5
 -3.30408748919544e-05    6    2    6    1
 0.004184295000122291    6    2    6    2
 -0.002237890717699365    6    3    1    1
 5.444676476706666e-05    6    3    2    1
 -0.001398991282993345    6    3    2    2
 4.779101954879615e-05    6    3    3    1
 -0.0001458305906646401    6    3    3    2
 -0.001812110287473097    6    3    3    3
 0.0001842681826296338    6    3    4    1
 4.032035227912378e-05    6    3    4    2
 -7.845073741008386e-05    6    3    4    3
 0.00698331074531451    6    3    4    4
 3.487348278081604e-05    6    3    5    1
 -0.0001240163328377164    6    3    5    2
 0.0001360162681050569    6    3    5    3
 -0.000195554150006462    6    3    5    4
 0.007187291944853843    6    3    5    5
 2.316373417130242e-06    6    3    6    1
 5.278493609370883e-06    6    3    6    2
 0.0002743708389736962    6    3    6    3
 -0.0004384424143427359    6    4    1    1
 0.0009681059559993746    6    4    2    1
 -0.0006779663741054942    6    4    2    2
 0.0002783686842227541    6    4    3    1
 0.0001058098504452399    6    4    3    2
 -0.000316087157146455    6    4    3    3
 8.395249883471884e-05    6    4    4    1
 0.0005181038186208189    6    4    4    2
 0.0004047160451773078    6    4    4    3
 0.001877503683520623    6    4    4    4
 1.101121550141362e-05    6    4    5    1
 -0.001250248717288682    6    4    5    2
 0.0002526190157883892    6    4    5    3
 6.041136689865953e-05    6    4    5    4
 0.01689729118580995    6    4    5    5
 0.0008989542045139724    6    4    6    1
 1.544448048630097e-05    6    4    6    2
 -0.0002866681572620217    6    4    6    3
 0.03824902318478992    6    4    6    4
 0.0006288390794537716    6    5    1    1
 0.0002258840948634504    6    5    2    1
 0.0008535549967839141    6    5    2    2
 -5.383802120680135e-05    6    5    3    1
 -0.0004476704990553801    6    5    3    2
 0.0004389292139395984    6    5    3    3
 5.629665619977479e-07    6    5    4    1
 -0.002353473731204508    6    5    4    2
 -3.534476107230838e-05    6    5    4    3
 -9.773989283555658e-05    6    5    4    4
 -0.0003287842810320451    6    5    5    1
 0.001325667562918123    6    5    5    2
 0.0003235083951698862    6    5    5    3
 -0.01047428177961347    6    5    5    4
 -0.002589506188606686    6    5    5    5
 0.0003046280270662278    6    5    6    1
 -0.0001818904781354117    6    5    6    2
 0.0004905368568828677    6    5    6    3
 0.001692978393713285    6    5    6    4
 0.03333340164919465    6    5    6    5
 0.257963077246384    6    6    1    1
 -0.0003250743174964486    6    6    2    1
 0.3325223834064445    6    6    2    2
 0.0001366224405479979    6    6    3    1
 0.007175397813546112    6    6    3    2
 0.2584662093408128    6    6    3    3
 0.01332171708758922    6    6    4    1
 -0.0002048864460187016    6    6    4    2
 -0.005360568394185799    6    6    4    3
 0.973939806096961    6    6    4    4
 0.0047817563386976    6    6    5    1
 0.001172416147420838    6    6    5    2
 0.009002603148373711    6    6    5    3
 -0.008105755431528479    6    6    5    4
 0.9996051909065444    6    6    5    5
 -0.000319591976832743    6    6    6    1
 -0.001987912217686448    6    6    6    2
 0.008121034170563817    6    6    6    3
 0.002120933045031213    6    6    6    4
 -0.0002069824732589919    6    6    6    5
 1.075102119951101    6    6    6    6
 -0.0009075001428072656    7    1    1    1
 6.089736228932415e-05    7    1    2    1
 -0.0002162361573734924    7    1    2    2
 3.692442688811867e-05    7    1    3    1
 -4.833031009148802e-05    7    1    3    2
 -0.0005555055584776536    7    1    3    3
 0.0003388239397515654    7    1    4    1
 6.789036247050889e-05    7    1    4    2
 -0.0001230839265010924    7    1    4    3
 0.00903184177961079    7    1    4    4
 0.0001292022887218692    7    1    5    1
 1.347401026283157e-05    7    1    5    2
 0.0002551595052984533    7    1    5    3
 7.87321799081131e-05    7    1    5    4
 0.008944244010795825    7    1    5    5
 -9.35913381300451e-06    7    1    6    1
 0.0001381506279259526    7    1    6    2
 0.0001734180203031689    7    1    6    3
 -0.0001829246824260192    7    1    6    4
 7.421646479111436e-05    7    1    6    5
 0.009029774385883109    7    1    6    6
 0.0003280800060591358    7    1    7    1
 0.0007068361773932343    7    2    1    1
 -0.0006942570180037578    7    2    2    1
 0.0007675605187608347    7    2    2    2
 -0.0002125726638553713    7    2    3    1
 -0.0005942318430808936    7    2    3    2
 -8.123913877897095e-05    7    2    3    3
 8.007682330851427e-05    7    2    4    1
 -0.0004754145784121814    7    2    4    2
 -0.000108679265457499    7    2    4    3
 0.002377971887948669    7    2    4    4
 -0.0001072993749249005    7    2    5    1
 0.0002974641970277319    7    2    5    2
 0.0001180811491662398    7    2    5    3
 -0.003342414297611811    7    2    5    4
 -0.002128979738895622    7    2    5    5
 5.652545819316104e-05    7    2    6    1
 3.668722823262626e-05    7    2    6    2
 -7.980657116435008e-05    7    2    6    3
 -0.0001632178871421787    7    2    6    4
 0.003074599871235483    7    2    6    5
 -0.0001201076582726659    7    2    6    6
 -0.0001371249466822901    7    2    7    1
 0.003865808346344123    7    2    7    2
 0.0008218115357579285    7    3    1    1
 0.0001187239612496029    7    3    2    1
 0.0005884099947435248    7    3    2    2
 0.0001418491688290027    7    3    3    1
 -0.0003593178367748368    7    3    3    2
 0.0008301162822855773    7    3    3    3
 0.0001507929163815604    7    3    4    1
 -0.0001457246990926947    7    3    4    2
 -0.0001445933554609518    7    3    4    3
 0.003237835293700215    7    3    4    4
 0.0001012324744199173    7    3    5    1
 0.0001088355976698927    7    3    5    2
 0.0001925898353724246    7    3    5    3
 9.625289482145965e-05    7    3    5    4
 0.003450254330448303    7    3    5    5
 -3.540875911791761e-06    7    3    6    1
 -1.359914646600912e-05    7    3    6    2
 4.839493407494632e-05    7    3    6    3
 -0.0001396513803100727    7    3    6    4
 -0.0001606927922702532    7    3    6    5
 0.003644173086283387    7    3    6    6
 0.0001203301523773331    7    3    7    1
 -0.0001763751738481203    7    3    7    2
 0.0001986754786233881    7    3    7    3
 0.001893291160334133    7    4    1    1
 0.000411551350306296    7    4    2    1
 0.003571740425336097    7    4    2    2
 0.0001644460706367499    7    4    3    1
 -0.0004224035124066824    7    4    3    2
 0.0008780077218675705    7    4    3    3
 0.0006045508759117004    7    4    4    1
 -0.001134118223696225    7    4    4    2
 0.0003166856175970656    7    4    4    3
 0.002343823929947308    7    4    4    4
 -1.080680213256669e-05    7    4    5    1
 0.002735953026279171    7    4    5    2
 3.635810053941746e-05    7    4    5    3
 0.0009913164640239474    7    4    5    4
 0.001399392491424991    7    4    5    5
 0.0002265521445996009    7    4    6    1
 0.0002287482403502184    7    4    6    2
 -2.798560584067512e-05    7    4    6    3
 0.002520662669655955    7    4    6    4
 0.006927721650600834    7    4    6    5
 -0.01524215024245759    7    4    6    6
 0.0008905538917500864    7    4    7    1
 0.0004377076701537637    7    4    7    2
 -0.0002871133246618223    7    4    7    3
 0.04182303980456872    7    4    7    4
 0.003167122821788526    7    5    1    1
 -0.0003820858696863617    7    5    2    1
 0.004524142693239896    7    5    2    2
 0.0001852517994982938    7    5    3    1
 0.0004301096125672801    7    5    3    2
 0.003425621302109859    7    5    3    3
 -0.0001031120314344142    7    5    4    1
 0.0009319227669587313    7    5    4    2
 -2.802795507088623e-05    7    5    4    3
 -0.0003088400250514149    7    5    4    4
 0.0005728486519510348    7    5    5    1
 0.0009769088415919446    7    5    5    2
 0.0001122894059631348    7    5    5    3
 0.0009593443564425278    7    5    5    4
 0.001447965181552501    7    5    5    5
 -0.0001553607413898266    7    5    6    1
 -0.004316174951586305    7    5    6    2
 -2.830464028796314e-05    7    5    6    3
 -0.007589999459175896    7    5    6    4
 -0.00551274497859179    7    5    6    5
 -0.003174202177811945    7    5    6    6
 0.0002595411371024116    7    5    7    1
 -0.002067745582681114    7    5    7    2
 0.0006066529991362553    7    5    7    3
 -3.962278791553184e-06    7    5    7    4
 0.04185268317770479    7    5    7    5
 7.565836873023446e-05    7    6    1    1
 0.0004019759600270887    7    6    2    1
 7.986319870003817e-05    7    6    2    2
 0.0003039799921452113    7    6    3    1
 -0.0002707326745981127    7    6    3    2
 -0.000140683370982331    7    6    3    3
 -0.0001306896883477274    7    6    4    1
 0.0002339608031871494    7    6    4    2
 0.0002624925345568833    7    6    4    3
 -0.01325778130106221    7    6    4    4
 0.0001083987306804289    7    6    5    1
 0.003216344048609321    7    6    5    2
 3.420984526579637e-05    7    6    5    3
 0.003225563607023851    7    6    5    4
 0.006171991136998381    7    6    5    5
 0.0005599698089842445    7    6    6    1
 5.091241759053443e-05    7    6    6    2
 0.000170908446217143    7    6    6    3
 0.003539206577828655    7    6    6    4
 0.0004806032381503478    7    6    6    5
 -0.001395090786886962    7    6    6    6
 0.000179899722643055    7    6    7    1
 -0.001786077685522683    7    6    7    2
 0.0003137521327319494    7    6    7    3
 0.008863940113191365    7    6    7    4
 0.001908858989858351    7    6    7    5
 0.03304328074717491    7    6    7    6
 0.2600760895737542    7    7    1    1
 -0.001000379939190573    7    7    2    1
 0.3365424520851973    7    7    2    2
 4.166053736415928e-05    7    7    3    1
 0.006751772546875461    7    7    3    2
 0.2594024079677862    7    7    3    3
 0.01366482155062034    7    7    4    1
 -0.0009739222312989323    7    7    4    2
 -0.005289280467047911    7    7    4    3
 0.9791814131280644    7    7    4    4
 0.004779344311151019    7    7    5    1
 0.003513890559605388    7    7    5    2
 0.008465402136002585    7    7    5    3
 0.001433008116980102    7    7    5    4
 0.9719978889645552    7    7    5    5
 -0.0005839162561673938    7    7    6    1
 0.0007016410676453186    7    7    6    2
 0.007437790629717599    7    7    6    3
 -0.01372085274635184    7    7    6    4
 0.001226864208081053    7    7    6    5
 0.9976470604167198    7    7    6    6
 0.01023300389444312    7    7    7    1
 0.000204807321048969    7    7    7    2
 0.00388434782806405    7    7    7    3
 0.003098816336924003    7    7    7    4
 0.0005230963708474265    7    7    7    5
 0.0008713688611867611    7    7    7    6
 1.056419762042843    7    7    7    7
 0.001466319505416947    8    1    1    1
 5.143048285370933e-05    8    1    2    1
 0.0004043747417336094    8    1    2    2
 -4.609432837452935e-05    8    1    3    1
 -0.0004692407355254932    8    1    3    2
 0.001449929215746344    8    1    3    3
 3.945025632907362e-05    8    1    4    1
 -2.172154493438897e-05    8    1    4    2
 -2.191951776609569e-05    8    1    4    3
 -0.0001537021777234491    8    1    4    4
 1.318331674110378e-05    8    1    5    1
 -6.618039129441937e-06    8    1    5    2
 3.901029668806264e-05    8    1    5    3
 -5.747919283025368e-06    8    1    5    4
 -0.0001436970956921376    8    1    5    5
 6.151444211693539e-06    8    1    6    1
 -7.35526596077059e-05    8    1    6    2
 1.326019382315284e-06    8    1    6    3
 1.187522200078234e-05    8    1    6    4
 2.909836708794151e-07    8    1    6    5
 -0.000143331271018055    8    1    6    6
 2.676887530536638e-05    8    1    7    1
 -7.002500304971813e-06    8    1    7    2
 2.7906462671387e-05    8    1    7    3
 -1.013276670354121e-05    8    1    7    4
 -2.070418853751683e-05    8    1    7    5
 -8.820911067502925e-07    8    1    7    6
 -0.0001591512824839745    8    1    7    7
 0.0006181763806523424    8    1    8    1
 0.0004972207097313899    8    2    1    1
 0.001060700549895843    8    2    2    1
 0.0005570258732075838    8    2    2    2
 -0.0006794365504116361    8    2    3    1
 0.0008148223627818949    8    2    3    2
 -0.0005021183583491331    8    2    3    3
 -2.184722043963812e-05    8    2    4    1
 2.566889590411485e-05    8    2    4    2
 1.225612380976087e-06    8    2    4    3
 0.0005535678979075837    8    2    4    4
 3.359046571719964e-05    8    2    5    1
 0.0001564807897387539    8    2    5    2
 1.40752266193867e-05    8    2    5    3
 -2.45701007035585e-05    8    2    5    4
 0.0005041832460302832    8    2    5    5
 -2.851055083995882e-05    8    2    6    1
 -1.685259890339414e-05    8    2    6    2
 -5.447045106290777e-05    8    2    6    3
 -5.531248446664061e-05    8    2    6    4
 1.754703205735643e-05    8    2    6    5
 0.0005604386544072964    8    2    6    6
 -1.39596024370373e-05    8    2    7    1
 0.0001308618726237029    8    2    7    2
 -2.1630088115244e-05    8    2    7    3
 1.309007634172149e-05    8    2    7    4
 2.581252847488839e-05    8    2    7    5
 -4.041097322285084e-06    8    2    7    6
 0.0006249658427765517    8    2    7    7
 -4.183180179806771e-05    8    2    8    1
 0.003764915670538094    8    2    8    2
 -0.0009235268947464061    8    3    1    1
 -0.0002365062987451797    8    3    2    1
 -0.0006976265318586061    8    3    2    2
 0.0001641930364007624    8    3    3    1
 -0.0004692263127364669    8    3    3    2
 -0.0009544220273850953    8    3    3    3
 2.172314072617822e-05    8    3    4    1
 -1.241778945067187e-06    8    3    4    2
 -1.633810036966811e-05    8    3    4    3
 -0.0008264037795226658    8    3    4    4
 1.458308768605943e-05    8    3    5    1
 -7.699010961513659e-06    8    3    5    2
 4.034326379838809e-05    8    3    5    3
 1.560694772144308e-05    8    3    5    4
 -0.0008340305719270862    8    3    5    5
 4.443668399879056e-06    8    3    6    1
 2.660175760002911e-06    8    3    6    2
 1.902198734987662e-05    8    3    6    3
 4.040833633866717e-06    8    3    6    4
 -9.33316244421069e-06    8    3    6    5
 -0.0008140266468839721    8    3    6    6
 2.427221835800047e-05    8    3    7    1
 -1.031799636072627e-05    8    3    7    2
 2.489133594057005e-05    8    3    7    3
 -9.152578613312899e-06    8    3    7    4
 -2.878054785362866e-05    8    3    7    5
 -4.319028093007795e-06    8    3    7    6
 -0.0008198182108495296    8    3    7    7
 0.0002776625804292032    8    3    8    1
 -0.0001897121922137929    8    3    8    2
 0.0002853508278322767    8    3    8    3
 9.809021711182126e-05    8    4    1    1
 -7.614539857550925e-06    8    4    2    1
 1.726445919129121e-05    8    4    2    2
 -8.213463429450104e-08    8    4    3    1
 -1.144240224208105e-08    8    4    3    2
 5.770063462229039e-05    8    4    3    3
 -7.972191476865788e-06    8    4    4    1
 2.266087691159803e-06    8    4    4    2
 -6.514064309378897e-07    8    4    4    3
 -0.0002159763445926303    8    4    4    4
 -4.421681922392833e-06    8    4    5    1
 -4.583530101118751e-06    8    4    5    2
 -1.485388750245157e-06    8    4    5    3
 -4.593918829319861e-05    8    4    5    4
 -0.0001906189714997305    8    4    5    5
 4.545048396578253e-07    8    4    6    1
 -9.756330380627489e-06    8    4    6    2
 -1.707062808219831e-06    8    4    6    3
 -3.717308217400995e-06    8    4    6    4
 3.628787324681702e-06    8    4    6    5
 -0.0001643882135739607    8    4    6    6
 -5.217494083959286e-06    8    4    7    1
 3.465066200965303e-06    8    4    7    2
 -3.99639188500801e-07    8    4    7    3
 -4.346092708109446e-05    8    4    7    4
 1.255602467639419e-06    8    4    7    5
 -7.872221148015631e-06    8    4    7    6
 -0.0001930533910948867    8    4    7    7
 7.97463942327968e-06    8    4    8    1
 -2.30328682377157e-06    8    4    8    2
 -6.786000755596099e-07    8    4    8    3
 6.334372177058203e-07    8    4    8    4
 0.0002416693204312548    8    5    1    1
 1.303069053211483e-05    8    5    2    1
 9.502060725277478e-05    8    5    2    2
 2.364056519134535e-05    8    5    3    1
 4.500076081002757e-06    8    5    3    2
 0.0002605814357859314    8    5    3    3
 -2.392529122317902e-05    8    5    4    1
 -8.116800631934448e-06    8    5    4    2
 1.030203869089263e-05    8    5    4    3
 -0.0007549317186617632    8    5    4    4
 -1.161613838749745e-05    8    5    5    1
 -2.032806243908846e-06    8    5    5    2
 -2.403577243220695e-05    8    5    5    3
 -1.521736929594229e-05    8    5    5    4
 -0.0008371887929406156    8    5    5    5
 -3.340620573098623e-07    8    5    6    1
 -4.51588630973557e-06    8    5    6    2
 -1.136994802572107e-05    8    5    6    3
 -1.360755072787786e-05    8    5    6    4
 1.127693864138527e-05    8    5    6    5
 -0.0007707509781813981    8    5    6    6
 -1.649802628481446e-05    8    5    7    1
 5.596839979871547e-06    8    5    7    2
 -8.993650322676546e-06    8    5    7    3
 1.305523211034416e-06    8    5    7    4
 -3.771655854694457e-05    8    5    7    5
 -5.872065695691938e-06    8    5    7    6
 -0.0007396851556282424    8    5    7    7
 2.775614723521532e-05    8    5    8    1
 2.86151490774034e-05    8    5    8    2
 1.663608840993119e-05    8    5    8    3
 3.932560813516711e-07    8    5    8    4
 3.792396426994465e-06    8    5    8    5
 3.226084124172556e-05    8    6    1    1
 7.209032871121551e-06    8    6    2    1
 9.708565122423257e-06    8    6    2    2
 2.341056375596997e-06    8    6    3    1
 3.830992044724188e-06    8    6    3    2
 1.785583480994333e-05    8    6    3    3
 2.58353907332743e-07    8    6    4    1
 -6.156491837594944e-06    8    6    4    2
 -7.433826625441942e-07    8    6    4    3
 1.123316230792246e-05    8    6    4    4
 1.220804382221911e-06    8    6    5    1
 3.540637584756458e-06    8    6    5    2
 -1.625250756757605e-06    8    6    5    3
 1.123896890764081e-05    8    6    5    4
 -1.271873996605858e-05    8    6    5    5
 -2.948909746060038e-06    8    6    6    1
 5.881689037397387e-06    8    6    6    2
 -7.357270499079577e-06    8    6    6    3
 -1.770693174989825e-05    8    6    6    4
 -4.181873288557194e-05    8    6    6    5
 -6.416224194478689e-06    8    6    6    6
 -2.458249405094589e-06    8    6    7    1
 1.189785454019592e-06    8    6    7    2
 -1.694769852630737e-07    8    6    7    3
 -1.535824928722723e-05    8    6    7    4
 3.967163417980467e-06    8    6    7    5
 -3.555489998644968e-05    8    6    7    6
 2.111503356317612e-06    8    6    7    7
 -2.347135889855192e-07    8    6    8    1
 0.0001703440392921657    8    6    8    2
 -2.216496057526812e-06    8    6    8    3
 -4.703608530549869e-08    8    6    8    4
 1.77688886221229e-06    8    6    8    5
 1.116156400089112e-05    8    6    8    6
 0.0002159217873524809    8    7    1    1
 -9.932752813147162e-06    8    7    2    1
 7.802661802898537e-05    8    7    2    2
 1.29769141941968e-05    8    7    3    1
 -8.513834869307541e-06    8    7    3    2
 0.0002094270519553331    8    7    3    3
 -1.969038343816803e-05    8    7    4    1
 4.643689132582918e-06    8    7    4    2
 9.26069241115085e-06    8    7    4    3
 -0.0006293571145873725    8    7    4    4
 -8.610838010435332e-06    8    7    5    1
 -2.489810020175123e-06    8    7    5    2
 -1.416880347242063e-05    8    7    5    3
 -7.650841840205294e-06    8    7    5    4
 -0.0006292499551413872    8    7    5    5
 1.153853819570837e-06    8    7    6    1
 -7.573536412145766e-06    8    7    6    2
 -1.094132864170677e-05    8    7    6    3
 2.104706386066278e-05    8    7    6    4
 7.391895453621935e-06    8    7    6    5
 -0.0006486952139052215    8    7    6    6
 -1.753723964162704e-05    8    7    7    1
 1.697850293427744e-05    8    7    7    2
 -1.15781387362223e-05    8    7    7    3
 -1.411755099040061e-05    8    7    7    4
 -4.947845576622474e-05    8    7    7    5
 -7.65270935523356e-06    8    7    7    6
 -0.0007162966625247441    8    7    7    7
 2.358533218915682e-05    8    7    8    1
 -7.077588955925486e-06    8    7    8    2
 1.248579866165677e-05    8    7    8    3
 4.721867618895774e-07    8    7    8    4
 2.495918125578042e-06    8    7    8    5
 -4.568885275471098e-07    8    7    8    6
 2.544786909406857e-06    8    7    8    7
 0.2637068596872686    8    8    1    1
 -0.0003426671276080119    8    8    2    1
 0.3425666901444265    8    8    2    2
 0.0004026876712267127    8    8    3    1
 -0.008210227407378102    8    8    3    2
 0.2634352441235474    8    8    3    3
 0.0001533587904190584    8    8    4    1
 -0.0005576519029441347    8    8    4    2
 -0.0008304024955228348    8    8    4    3
 0.1392128918575326    8    8    4    4
 9.727268423179342e-05    8    8    5    1
 0.001374025844255404    8    8    5    2
 0.001136835616539895    8    8    5    3
 -0.0003057584650225165    8    8    5    4
 0.1389995275119767    8    8    5    5
 -2.625134988462447e-05    8    8    6    1
 0.003268879396062956    8    8    6    2
 -0.0007557084960706912    8    8    6    3
 -9.37810406986532e-05    8    8    6    4
 0.0002099922785118686    8    8    6    5
 0.1385295005984323    8    8    6    6
 8.59864255266818e-05    8    8    7    1
 0.0002211324334681624    8    8    7    2
 0.0006880807567949273    8    8    7    3
 0.0002888614908275679    8    8    7    4
 0.0006067369406291454    8    8    7    5
 1.827030517212864e-05    8    8    7    6
 0.1386488113802118    8    8    7    7
 -0.01537615654026972    8    8    8    1
 -0.0001432470679476834    8    8    8    2
 -0.005817473855302701    8    8    8    3
 -0.000215854341160749    8    8    8    4
 -0.0008855581911335075    8    8    8    5
 -8.933220105826274e-05    8    8    8    6
 -0.0007321763991302078    8    8    8    7
 1.06526122807957    8    8    8    8
 -0.0004668327702195629    9    1    1    1
 -3.085050171857567e-05    9    1    2    1
 -0.0001202210447852156    9    1    2    2
 -4.313661341445542e-05    9    1    3    1
 0.0003031032129410296    9    1    3    2
 -0.0006464107211215048    9    1    3    3
 -1.320057214511615e-05    9    1    4    1
 -3.358082993412776e-05    9    1    4    2
 1.469445884334841e-05    9    1    4    3
 9.723786855698685e-05    9    1    4    4
 -7.729557109561172e-07    9    1    5    1
 1.438398857304137e-05    9    1    5    2
 -1.385903689747504e-05    9    1    5    3
 -1.093163997084109e-05    9    1    5    4
 8.607443801782405e-05    9    1    5    5
 7.895009076615393e-06    9    1    6    1
 2.479632979390515e-05    9    1    6    2
 -9.514862198673143e-06    9    1    6    3
 1.107845652019592e-05    9    1    6    4
 1.18702794601222e-05    9    1    6    5
 7.730843941978893e-05    9    1    6    6
 -1.516002155679609e-05    9    1    7    1
 -1.491583797731224e-05    9    1    7    2
 6.118557465989568e-06    9    1    7    3
 1.326298730175217e-05    9    1    7    4
 -1.119518967963651e-05    9    1    7    5
 2.39819157774387e-06    9    1    7    6
 7.01039768487669e-05    9    1    7    7
 -0.0001746817119087396    9    1    8    1